/*--------------------------------*- C++ -*----------------------------------*\
| =========                 |                                                 |
| \\      /  F ield         | OpenFOAM: The Open Source CFD Toolbox           |
|  \\    /   O peration     | Version:  v1712                                 |
|   \\  /    A nd           | Web:      www.OpenFOAM.com                      |
|    \\/     M anipulation  |                                                 |
\*---------------------------------------------------------------------------*/
FoamFile
{
    version     2.0;
    format      ascii;
    class       surfaceScalarField;
    location    "0.5";
    object      phi;
}
// * * * * * * * * * * * * * * * * * * * * * * * * * * * * * * * * * * * * * //

dimensions      [1 0 -1 0 0 0 0];
oriented        oriented;


internalField   nonuniform List<scalar> 
760
(
-3.16567e-14
-0.00789379
-1.14443e-14
-0.00789379
-6.11842e-16
-0.00789379
-1.65151e-16
-0.00789379
2.36898e-17
-0.00789379
2.87585e-17
-0.00789379
5.31801e-17
-0.00789379
-7.20994e-18
-0.00789379
4.84367e-17
-0.00789379
4.61328e-17
-0.00789379
-6.72476e-17
-0.00789379
1.66425e-17
-0.00789379
6.74374e-17
-0.00789379
2.83519e-17
-0.00789379
1.43657e-18
-0.00789379
1.38534e-16
-0.00789379
5.58662e-16
-0.00789379
1.15208e-14
-0.00789379
3.16391e-14
-0.00789379
-0.00789379
-4.83719e-13
-0.00789385
-1.75995e-13
-0.00789385
-9.61495e-15
-0.00789385
-2.25262e-15
-0.00789385
-8.73596e-17
-0.00789385
1.15169e-16
-0.00789385
9.97195e-17
-0.00789385
-7.64363e-17
-0.00789385
-6.45371e-17
-0.00789385
1.01563e-16
-0.00789385
8.9799e-17
-0.00789385
-4.13623e-17
-0.00789385
-4.63225e-17
-0.00789385
7.26144e-17
-0.00789385
1.18774e-16
-0.00789385
2.18987e-15
-0.00789385
9.5882e-15
-0.00789385
1.77094e-13
-0.00789385
4.84322e-13
-0.00789385
-0.00789385
-6.80194e-12
-0.00789444
-2.62929e-12
-0.00789444
-1.35425e-13
-0.00789444
-3.19254e-14
-0.00789444
-8.60179e-16
-0.00789444
-2.54788e-17
-0.00789444
8.46762e-17
-0.00789444
5.78964e-17
-0.00789444
-1.36881e-17
-0.00789444
-4.3097e-18
-0.00789444
4.54009e-17
-0.00789444
4.44794e-17
-0.00789444
-6.55942e-17
-0.00789444
1.00126e-16
-0.00789444
8.70208e-16
-0.00789444
3.19782e-14
-0.00789444
1.35642e-13
-0.00789444
2.64332e-12
-0.00789444
6.81396e-12
-0.00789444
-0.00789444
-1.54073e-10
-0.0079233
-4.5966e-11
-0.00792334
-2.15378e-12
-0.00792334
-4.75616e-13
-0.00792334
-3.16121e-15
-0.00792334
-1.48265e-16
-0.00792334
2.74845e-16
-0.00792334
1.5992e-17
-0.00792334
8.85793e-17
-0.00792334
-7.58942e-19
-0.00792334
-7.67073e-18
-0.00792334
7.64635e-17
-0.00792334
-1.56749e-16
-0.00792334
1.92879e-16
-0.00792334
3.24073e-15
-0.00792334
4.77999e-13
-0.00792334
2.16019e-12
-0.00792334
4.6113e-11
-0.00792334
1.54203e-10
-0.00792334
-0.0079233
-9.89765e-10
-0.00797903
-3.74983e-10
-0.00797902
-2.57384e-11
-0.00797902
-5.94656e-12
-0.00797902
-2.46436e-13
-0.00797902
-4.04221e-14
-0.00797902
-8.04776e-16
-0.00797902
-3.47759e-17
-0.00797902
1.99493e-17
-0.00797902
5.74618e-18
-0.00797902
-1.32e-17
-0.00797902
7.73847e-17
-0.00797902
9.44151e-16
-0.00797902
4.0747e-14
-0.00797902
2.47502e-13
-0.00797902
5.96505e-12
-0.00797902
2.57702e-11
-0.00797902
3.75356e-10
-0.00797902
9.89738e-10
-0.00797902
-0.00797903
-6.00948e-10
-0.00795567
-3.92678e-10
-0.00795566
-5.35009e-11
-0.00795566
-1.6407e-11
-0.00795566
-1.07866e-12
-0.00795566
-2.32498e-13
-0.00795566
-1.01533e-14
-0.00795566
-1.70521e-15
-0.00795566
-9.35124e-17
-0.00795566
-3.23906e-17
-0.00795566
5.55653e-17
-0.00795566
1.7795e-15
-0.00795566
1.0336e-14
-0.00795566
2.3343e-13
-0.00795566
1.08122e-12
-0.00795566
1.64339e-11
-0.00795566
5.35016e-11
-0.00795566
3.92614e-10
-0.00795566
6.00181e-10
-0.00795566
-0.00795567
-3.2591e-10
-0.00793763
-2.50936e-10
-0.00793762
-6.26629e-11
-0.00793762
-2.22889e-11
-0.00793762
-1.84211e-12
-0.00793762
-4.25548e-13
-0.00793762
-2.22356e-14
-0.00793762
-4.08489e-15
-0.00793762
-2.1329e-16
-0.00793762
3.17136e-18
-0.00793762
2.09929e-16
-0.00793762
4.16889e-15
-0.00793762
2.24411e-14
-0.00793762
4.26873e-13
-0.00793762
1.84499e-12
-0.00793762
2.23121e-11
-0.00793762
6.26381e-11
-0.00793762
2.50228e-10
-0.00793762
3.25749e-10
-0.00793762
-0.00793763
-9.32045e-12
-0.00791284
-5.63246e-11
-0.00791283
-5.30121e-11
-0.00791283
-2.19664e-11
-0.00791283
-2.55709e-12
-0.00791283
-6.53913e-13
-0.00791283
-4.30562e-14
-0.00791283
-8.55829e-15
-0.00791283
-3.74077e-16
-0.00791283
-2.07625e-17
-0.00791283
3.99014e-16
-0.00791283
8.67617e-15
-0.00791283
4.32559e-14
-0.00791283
6.54835e-13
-0.00791283
2.55738e-12
-0.00791283
2.19463e-11
-0.00791283
5.29412e-11
-0.00791283
5.44957e-11
-0.00791283
9.30941e-12
-0.00791283
-0.00791284
2.03025e-09
-0.00782187
8.09145e-10
-0.00782181
5.14437e-11
-0.00782181
8.61702e-12
-0.00782181
-1.75893e-12
-0.00782181
-6.73486e-13
-0.00782181
-7.32917e-14
-0.00782181
-1.65993e-14
-0.00782181
-9.17886e-16
-0.00782181
3.79197e-17
-0.00782181
9.45831e-16
-0.00782181
1.66233e-14
-0.00782181
7.31472e-14
-0.00782181
6.66633e-13
-0.00782181
1.74303e-12
-0.00782181
-8.95558e-12
-0.00782181
-5.17863e-11
-0.00782181
-8.15305e-10
-0.00782181
-2.03277e-09
-0.00782181
-0.00782187
1.01675e-08
-0.00752548
4.41603e-09
-0.00752553
5.77584e-10
-0.00752553
1.69346e-10
-0.00752553
6.96428e-12
-0.00752553
8.43218e-13
-0.00752553
-8.76721e-14
-0.00752553
-2.96427e-14
-0.00752553
-2.25484e-15
-0.00752553
2.7919e-18
-0.00752553
2.28994e-15
-0.00752553
2.91081e-14
-0.00752553
8.56948e-14
-0.00752553
-8.92587e-13
-0.00752553
-7.05913e-12
-0.00752553
-1.71151e-10
-0.00752553
-5.78902e-10
-0.00752553
-4.43663e-09
-0.00752553
-1.01736e-08
-0.00752553
-0.00752548
4.17221e-09
-0.00737471
2.58955e-09
-0.00737476
2.86899e-10
-0.00737476
1.05524e-10
-0.00737476
8.97459e-12
-0.00737476
2.32106e-12
-0.00737476
1.31762e-13
-0.00737476
2.49729e-14
-0.00737476
6.18104e-16
-0.00737476
-1.62634e-18
-0.00737476
-5.96447e-16
-0.00737476
-2.47923e-14
-0.00737476
-1.31241e-13
-0.00737476
-2.31351e-12
-0.00737476
-8.95187e-12
-0.00737476
-1.05281e-10
-0.00737476
-2.86131e-10
-0.00737476
-2.58949e-09
-0.00737476
-4.16298e-09
-0.00737476
-0.00737471
-3.26048e-09
-0.00729251
-1.20295e-09
-0.00729255
2.22351e-11
-0.00729256
4.14373e-11
-0.00729256
9.72676e-12
-0.00729256
3.2931e-12
-0.00729256
2.5553e-13
-0.00729256
5.57017e-14
-0.00729256
2.06801e-15
-0.00729256
1.35543e-19
-0.00729256
-2.03751e-15
-0.00729256
-5.50221e-14
-0.00729256
-2.53067e-13
-0.00729256
-3.2395e-12
-0.00729256
-9.63802e-12
-0.00729256
-3.95593e-11
-0.00729256
-2.0789e-11
-0.00729256
1.23673e-09
-0.00729256
3.26907e-09
-0.00729255
-0.00729251
-1.23584e-08
-0.0074037
-5.08752e-09
-0.0074038
-3.18604e-10
-0.0074038
-5.4661e-11
-0.00740381
7.66169e-12
-0.00740381
3.56058e-12
-0.00740381
3.56365e-13
-0.00740381
8.0912e-14
-0.00740381
3.46812e-15
-0.00740381
-3.44234e-18
-0.00740381
-3.39645e-15
-0.00740381
-7.89148e-14
-0.00740381
-3.49779e-13
-0.00740381
-3.41531e-12
-0.00740381
-7.43899e-12
-0.00740381
5.95522e-11
-0.00740381
3.22259e-10
-0.00740381
5.1593e-09
-0.0074038
1.23794e-08
-0.0074038
-0.0074037
-1.63593e-08
-0.00783337
-6.2829e-09
-0.00783352
-3.40315e-10
-0.00783352
-5.05199e-11
-0.00783352
1.16316e-11
-0.00783352
4.89131e-12
-0.00783352
4.51941e-13
-0.00783352
9.9212e-14
-0.00783352
3.84254e-15
-0.00783352
-9.49446e-18
-0.00783352
-3.67042e-15
-0.00783352
-9.40478e-14
-0.00783352
-4.3539e-13
-0.00783352
-4.53923e-12
-0.00783352
-1.11351e-11
-0.00783352
6.14751e-11
-0.00783352
3.46155e-10
-0.00783352
6.42812e-09
-0.00783352
1.63788e-08
-0.00783352
-0.00783337
2.62917e-08
-0.00744427
1.15338e-08
-0.00744431
1.73541e-09
-0.00744432
5.47017e-10
-0.00744432
5.00237e-11
-0.00744432
1.12967e-11
-0.00744432
5.78029e-13
-0.00744432
9.34832e-14
-0.00744432
6.047e-16
-0.00744432
6.68322e-17
-0.00744432
-5.01083e-17
-0.00744432
-7.89102e-14
-0.00744432
-5.26935e-13
-0.00744432
-1.03651e-11
-0.00744432
-4.7197e-11
-0.00744432
-5.20549e-10
-0.00744432
-1.71708e-09
-0.00744432
-1.13772e-08
-0.00744432
-2.63006e-08
-0.00744431
-0.00744427
-2.26944e-09
-0.0078871
-1.42332e-09
-0.00788712
-1.01277e-10
-0.00788712
-4.85925e-11
-0.00788713
-1.85369e-12
-0.00788713
-8.09293e-13
-0.00788713
-4.30031e-14
-0.00788713
-1.27712e-14
-0.00788713
-9.48837e-16
-0.00788713
-5.17578e-18
-0.00788713
1.0174e-15
-0.00788713
1.46295e-14
-0.00788713
5.02599e-14
-0.00788713
9.25542e-13
-0.00788713
2.09358e-12
-0.00788713
5.21387e-11
-0.00788713
1.05466e-10
-0.00788713
1.46583e-09
-0.00788712
2.27749e-09
-0.00788712
-0.0078871
-1.30802e-09
-0.00785333
-6.20805e-10
-0.00785334
-4.60767e-11
-0.00785334
-1.71109e-11
-0.00785334
-8.46405e-13
-0.00785334
-2.50665e-13
-0.00785334
-1.29849e-14
-0.00785334
-2.99372e-15
-0.00785334
-1.73364e-16
-0.00785334
-4.10476e-18
-0.00785334
1.69935e-16
-0.00785334
3.25558e-15
-0.00785334
1.40391e-14
-0.00785334
2.70999e-13
-0.00785334
8.8866e-13
-0.00785334
1.793e-11
-0.00785334
4.69123e-11
-0.00785334
6.34849e-10
-0.00785334
1.31417e-09
-0.00785334
-0.00785333
-4.35624e-10
-0.00789168
-1.90428e-10
-0.00789169
-1.38237e-11
-0.00789169
-4.6484e-12
-0.00789169
-2.28049e-13
-0.00789169
-5.92043e-14
-0.00789169
-2.64689e-15
-0.00789169
-5.23113e-16
-0.00789169
-2.82816e-17
-0.00789169
-1.94327e-18
-0.00789169
1.9827e-17
-0.00789169
5.56811e-16
-0.00789169
2.78339e-15
-0.00789169
6.21361e-14
-0.00789169
2.34723e-13
-0.00789169
4.80151e-12
-0.00789169
1.39841e-11
-0.00789169
1.94367e-10
-0.00789169
4.36974e-10
-0.00789169
-0.00789168
-1.13908e-10
-0.00790105
-4.82133e-11
-0.00790105
-3.65269e-12
-0.00790105
-1.1899e-12
-0.00790105
-5.95019e-14
-0.00790105
-1.48394e-14
-0.00790105
-6.39205e-16
-0.00790105
-9.93405e-17
-0.00790105
-8.18572e-18
-0.00790105
8.9364e-20
-0.00790105
2.29588e-18
-0.00790105
1.06348e-16
-0.00790105
6.67582e-16
-0.00790105
1.54759e-14
-0.00790105
6.10255e-14
-0.00790105
1.22622e-12
-0.00790105
3.69242e-12
-0.00790105
4.92388e-11
-0.00790105
1.14297e-10
-0.00790105
-0.00790105
-1.69651e-11
-6.98075e-12
-5.69061e-13
-1.81557e-13
-9.46522e-15
-2.2561e-15
-9.84687e-17
-7.4991e-18
-1.33481e-18
1.24718e-19
8.21622e-20
8.57028e-18
1.03032e-16
2.35306e-15
9.71015e-15
1.87122e-13
5.75456e-13
7.13187e-12
1.70309e-11
)
;

boundaryField
{
    inlet
    {
        type            calculated;
        value           nonuniform List<scalar> 
20
(
-0.0078935
-0.0078935
-0.0078935
-0.0078935
-0.0078935
-0.0078935
-0.0078935
-0.0078935
-0.0078935
-0.0078935
-0.0078935
-0.0078935
-0.0078935
-0.0078935
-0.0078935
-0.0078935
-0.0078935
-0.0078935
-0.0078935
-0.0078935
)
;
    }
    outlet
    {
        type            calculated;
        value           nonuniform List<scalar> 
20
(
0.00789379
0.00789379
0.00789379
0.00789379
0.00789379
0.00789379
0.00789379
0.00789379
0.00789379
0.00789379
0.00789379
0.00789379
0.00789379
0.00789379
0.00789379
0.00789379
0.00789379
0.00789379
0.00789379
0.00789379
)
;
    }
    left
    {
        type            cyclic;
        value           nonuniform List<scalar> 
20
(
2.95879e-16
2.08235e-15
2.60544e-14
2.99039e-13
4.59136e-13
-3.51285e-13
-8.97147e-13
-2.13064e-12
-9.86381e-12
-3.16207e-11
7.06856e-12
5.19451e-11
1.0815e-10
2.05902e-10
2.06737e-10
6.15655e-11
2.07271e-11
5.66773e-12
1.522e-12
2.3465e-13
)
;
    }
    right
    {
        type            cyclic;
        value           nonuniform List<scalar> 
20
(
-2.95879e-16
-2.08235e-15
-2.60544e-14
-2.99039e-13
-4.59136e-13
3.51285e-13
8.97147e-13
2.13064e-12
9.86381e-12
3.16207e-11
-7.06856e-12
-5.19451e-11
-1.0815e-10
-2.05902e-10
-2.06737e-10
-6.15655e-11
-2.07271e-11
-5.66773e-12
-1.522e-12
-2.3465e-13
)
;
    }
    frontAndBack
    {
        type            empty;
        value           nonuniform 0();
    }
}


// ************************************************************************* //
