/*--------------------------------*- C++ -*----------------------------------*\
| =========                 |                                                 |
| \\      /  F ield         | OpenFOAM: The Open Source CFD Toolbox           |
|  \\    /   O peration     | Version:  v1712                                 |
|   \\  /    A nd           | Web:      www.OpenFOAM.com                      |
|    \\/     M anipulation  |                                                 |
\*---------------------------------------------------------------------------*/
FoamFile
{
    version     2.0;
    format      ascii;
    class       volVectorField;
    location    "0.5";
    object      U;
}
// * * * * * * * * * * * * * * * * * * * * * * * * * * * * * * * * * * * * * //

dimensions      [0 1 -1 0 0 0 0];


internalField   nonuniform List<vector> 
400
(
(-1.32366e-12 -0.394688 0)
(-1.3342e-12 -0.394688 0)
(-3.94737e-14 -0.394688 0)
(-1.8943e-14 -0.394688 0)
(-1.69786e-15 -0.394688 0)
(1.02447e-15 -0.394688 0)
(3.78642e-15 -0.394688 0)
(1.0829e-15 -0.394688 0)
(-1.02386e-15 -0.394688 0)
(4.18308e-15 -0.394688 0)
(-1.03088e-15 -0.394688 0)
(-2.35292e-15 -0.394688 0)
(2.01291e-15 -0.394688 0)
(2.85808e-15 -0.394688 0)
(1.13555e-15 -0.394688 0)
(8.41959e-16 -0.394688 0)
(1.61464e-14 -0.394688 0)
(3.94381e-14 -0.394688 0)
(1.34377e-12 -0.394688 0)
(1.30615e-12 -0.394688 0)
(-2.01726e-11 -0.394688 0)
(-2.03976e-11 -0.394688 0)
(-6.3015e-13 -0.394688 0)
(-2.7189e-13 -0.394688 0)
(-9.87999e-15 -0.394688 0)
(7.32568e-16 -0.394688 0)
(8.52361e-15 -0.394688 0)
(5.20641e-16 -0.394688 0)
(-6.59401e-15 -0.394688 0)
(1.61563e-15 -0.394688 0)
(6.83347e-15 -0.394688 0)
(1.02939e-15 -0.394688 0)
(-4.36149e-15 -0.394688 0)
(6.70813e-16 -0.394688 0)
(6.1332e-15 -0.394688 0)
(5.49265e-15 -0.394688 0)
(2.69818e-13 -0.394688 0)
(6.28179e-13 -0.394688 0)
(2.05324e-11 -0.394688 0)
(2.00312e-11 -0.394688 0)
(-2.92267e-10 -0.394694 0)
(-2.95865e-10 -0.394694 0)
(-9.03903e-12 -0.394694 0)
(-3.72288e-12 -0.394694 0)
(-8.03193e-14 -0.394694 0)
(-1.48165e-14 -0.394694 0)
(5.05424e-15 -0.394694 0)
(3.78911e-15 -0.394694 0)
(8.19056e-16 -0.394694 0)
(-6.46796e-16 -0.394694 0)
(6.53591e-17 -0.394694 0)
(3.72177e-15 -0.394694 0)
(-1.23892e-15 -0.394694 0)
(-3.05269e-15 -0.394694 0)
(2.01794e-14 -0.394694 0)
(7.52871e-14 -0.394694 0)
(3.7354e-12 -0.394694 0)
(9.03409e-12 -0.394694 0)
(2.97626e-10 -0.394694 0)
(2.90489e-10 -0.394694 0)
(-5.85444e-09 -0.39477 0)
(-5.94129e-09 -0.39477 0)
(-1.64071e-10 -0.39477 0)
(-5.84865e-11 -0.39477 0)
(-5.85903e-13 -0.39477 0)
(6.06332e-14 -0.39477 0)
(2.13556e-14 -0.39477 0)
(5.75328e-15 -0.39477 0)
(2.06297e-15 -0.39477 0)
(4.96408e-15 -0.39477 0)
(-3.37754e-15 -0.39477 0)
(2.80228e-15 -0.39477 0)
(-1.69206e-16 -0.39477 0)
(-1.77375e-14 -0.39477 0)
(-6.07082e-14 -0.39477 0)
(5.96243e-13 -0.39477 0)
(5.87826e-11 -0.39477 0)
(1.64022e-10 -0.39477 0)
(5.96036e-09 -0.39477 0)
(5.8351e-09 -0.39477 0)
(-4.14367e-08 -0.394904 0)
(-4.22774e-08 -0.394904 0)
(-1.58834e-09 -0.394904 0)
(-7.18858e-10 -0.394904 0)
(-2.11309e-11 -0.394904 0)
(-5.33055e-12 -0.394904 0)
(-9.69598e-14 -0.394904 0)
(-1.22925e-14 -0.394904 0)
(-2.44101e-15 -0.394904 0)
(2.15858e-15 -0.394904 0)
(-3.54103e-16 -0.394904 0)
(6.8624e-16 -0.394904 0)
(1.81391e-14 -0.394904 0)
(1.0547e-13 -0.394904 0)
(5.36287e-12 -0.394904 0)
(2.11917e-11 -0.394904 0)
(7.21028e-10 -0.394904 0)
(1.58719e-09 -0.394904 0)
(4.23198e-08 -0.394904 0)
(4.13931e-08 -0.394904 0)
(-3.22581e-08 -0.394924 0)
(-3.34529e-08 -0.394924 0)
(-2.9308e-09 -0.394924 0)
(-1.80939e-09 -0.394924 0)
(-8.22756e-11 -0.394924 0)
(-2.68042e-11 -0.394924 0)
(-9.08405e-13 -0.394924 0)
(-2.08463e-13 -0.394924 0)
(-9.9202e-15 -0.394924 0)
(-2.52619e-15 -0.394924 0)
(-6.90746e-16 -0.394924 0)
(8.95106e-15 -0.394924 0)
(2.17963e-13 -0.394924 0)
(9.17154e-13 -0.394924 0)
(2.69044e-11 -0.394924 0)
(8.23065e-11 -0.394924 0)
(1.81239e-09 -0.394924 0)
(2.92692e-09 -0.394924 0)
(3.34326e-08 -0.394924 0)
(3.22791e-08 -0.394924 0)
(-1.80666e-08 -0.394822 0)
(-1.91248e-08 -0.394822 0)
(-3.26872e-09 -0.394822 0)
(-2.35958e-09 -0.394822 0)
(-1.29366e-10 -0.394822 0)
(-4.77257e-11 -0.394822 0)
(-1.90723e-12 -0.394822 0)
(-4.801e-13 -0.394822 0)
(-2.03571e-14 -0.394822 0)
(-4.56257e-15 -0.394822 0)
(4.39868e-15 -0.394822 0)
(2.02229e-14 -0.394822 0)
(4.89781e-13 -0.394822 0)
(1.91794e-12 -0.394822 0)
(4.78652e-11 -0.394822 0)
(1.2934e-10 -0.394822 0)
(2.36209e-09 -0.394822 0)
(3.26364e-09 -0.394822 0)
(1.90562e-08 -0.394822 0)
(1.81377e-08 -0.394822 0)
(-7.86421e-10 -0.394549 0)
(-1.37977e-09 -0.394548 0)
(-2.55628e-09 -0.394548 0)
(-2.22944e-09 -0.394548 0)
(-1.66354e-10 -0.394548 0)
(-7.18981e-11 -0.394548 0)
(-3.56184e-12 -0.394548 0)
(-9.89429e-13 -0.394548 0)
(-3.7999e-14 -0.394548 0)
(-7.13728e-15 -0.394548 0)
(6.19308e-15 -0.394548 0)
(4.10436e-14 -0.394548 0)
(9.9956e-13 -0.394548 0)
(3.5702e-12 -0.394548 0)
(7.19915e-11 -0.394548 0)
(1.66226e-10 -0.394548 0)
(2.22688e-09 -0.394548 0)
(2.55447e-09 -0.394548 0)
(1.21279e-09 -0.394548 0)
(9.57782e-10 -0.394549 0)
(8.77996e-08 -0.393128 0)
(8.9244e-08 -0.393128 0)
(3.44626e-09 -0.393128 0)
(1.18312e-09 -0.393128 0)
(-8.46545e-11 -0.393128 0)
(-6.87055e-11 -0.393128 0)
(-5.52055e-12 -0.393128 0)
(-1.86399e-12 -0.393128 0)
(-8.58019e-14 -0.393128 0)
(-1.71498e-14 -0.393128 0)
(1.88783e-14 -0.393128 0)
(8.80996e-14 -0.393128 0)
(1.86287e-12 -0.393128 0)
(5.51258e-12 -0.393128 0)
(6.78691e-11 -0.393128 0)
(8.43212e-11 -0.393128 0)
(-1.22344e-09 -0.393128 0)
(-3.41941e-09 -0.393128 0)
(-9.00018e-08 -0.393128 0)
(-8.70272e-08 -0.393128 0)
(4.52436e-07 -0.390532 0)
(4.6345e-07 -0.390532 0)
(3.2596e-08 -0.390532 0)
(1.92757e-08 -0.390532 0)
(6.24429e-10 -0.390532 0)
(1.15483e-10 -0.390532 0)
(-4.32961e-12 -0.390532 0)
(-3.07741e-12 -0.390532 0)
(-1.96409e-13 -0.390532 0)
(-4.63546e-14 -0.390532 0)
(4.75632e-14 -0.390532 0)
(1.99143e-13 -0.390532 0)
(3.00396e-12 -0.390532 0)
(4.24067e-12 -0.390532 0)
(-1.21418e-10 -0.390532 0)
(-6.24916e-10 -0.390532 0)
(-1.94868e-08 -0.390532 0)
(-3.24298e-08 -0.390532 0)
(-4.66047e-07 -0.390532 0)
(-4.49788e-07 -0.390532 0)
(2.25429e-07 -0.388285 0)
(2.29813e-07 -0.388285 0)
(1.48784e-08 -0.388285 0)
(1.1263e-08 -0.388285 0)
(5.64415e-10 -0.388285 0)
(2.63229e-10 -0.388285 0)
(1.0854e-11 -0.388285 0)
(3.02992e-12 -0.388285 0)
(6.81471e-14 -0.388285 0)
(1.04901e-14 -0.388285 0)
(-1.11552e-14 -0.388285 0)
(-6.47405e-14 -0.388285 0)
(-3.01109e-12 -0.388285 0)
(-1.08322e-11 -0.388285 0)
(-2.62229e-10 -0.388285 0)
(-5.64207e-10 -0.388285 0)
(-1.1224e-08 -0.388285 0)
(-1.48954e-08 -0.388285 0)
(-2.29393e-07 -0.388285 0)
(-2.25871e-07 -0.388285 0)
(-1.4039e-07 -0.383279 0)
(-1.4091e-07 -0.38328 0)
(-1.69079e-09 -0.38328 0)
(3.45919e-09 -0.38328 0)
(5.23019e-10 -0.38328 0)
(3.58792e-10 -0.38328 0)
(1.93026e-11 -0.38328 0)
(6.45224e-12 -0.38328 0)
(1.96474e-13 -0.38328 0)
(3.93316e-14 -0.38328 0)
(-3.984e-14 -0.38328 0)
(-1.92345e-13 -0.38328 0)
(-6.37468e-12 -0.38328 0)
(-1.92118e-11 -0.38328 0)
(-3.52527e-10 -0.38328 0)
(-5.22875e-10 -0.38328 0)
(-3.19121e-09 -0.38328 0)
(1.49297e-09 -0.38328 0)
(1.45089e-07 -0.38328 0)
(1.36134e-07 -0.383279 0)
(-5.51368e-07 -0.362588 0)
(-5.56057e-07 -0.362589 0)
(-2.13466e-08 -0.362589 0)
(-7.26136e-09 -0.362589 0)
(2.99921e-10 -0.362589 0)
(3.6396e-10 -0.362589 0)
(2.46403e-11 -0.362589 0)
(9.27153e-12 -0.362589 0)
(3.20495e-13 -0.362589 0)
(6.77367e-14 -0.362589 0)
(-6.74449e-14 -0.362589 0)
(-3.12888e-13 -0.362589 0)
(-9.03501e-12 -0.362589 0)
(-2.43947e-11 -0.362589 0)
(-3.45967e-10 -0.362589 0)
(-3.03771e-10 -0.362589 0)
(7.85088e-09 -0.362589 0)
(2.0899e-08 -0.362589 0)
(5.64893e-07 -0.362589 0)
(5.42376e-07 -0.362588 0)
(-7.01953e-07 -0.303656 0)
(-6.97741e-07 -0.303658 0)
(-2.16993e-08 -0.303658 0)
(-7.28301e-09 -0.303658 0)
(5.35992e-10 -0.303658 0)
(4.7846e-10 -0.303658 0)
(3.09998e-11 -0.303658 0)
(1.11475e-11 -0.303658 0)
(3.53335e-13 -0.303658 0)
(7.07292e-14 -0.303658 0)
(-6.87855e-14 -0.303658 0)
(-3.37351e-13 -0.303658 0)
(-1.05635e-11 -0.303658 0)
(-3.03015e-11 -0.303658 0)
(-4.36961e-10 -0.303658 0)
(-5.43672e-10 -0.303658 0)
(8.58741e-09 -0.303658 0)
(2.07067e-08 -0.303658 0)
(7.14938e-07 -0.303658 0)
(6.8441e-07 -0.303656 0)
(1.38206e-06 -0.450925 0)
(1.46275e-06 -0.450934 0)
(1.21654e-07 -0.450934 0)
(7.18725e-08 -0.450935 0)
(4.41713e-09 -0.450935 0)
(1.55286e-09 -0.450935 0)
(6.32221e-11 -0.450935 0)
(1.38788e-11 -0.450935 0)
(1.35214e-13 -0.450935 0)
(-1.79762e-14 -0.450935 0)
(3.51525e-14 -0.450935 0)
(-8.2953e-14 -0.450935 0)
(-1.18032e-11 -0.450935 0)
(-5.91099e-11 -0.450935 0)
(-1.42507e-09 -0.450935 0)
(-4.4124e-09 -0.450935 0)
(-6.81874e-08 -0.450935 0)
(-1.24441e-07 -0.450934 0)
(-1.43857e-06 -0.450934 0)
(-1.40728e-06 -0.450925 0)
(-5.09633e-07 -1.34611 0)
(-4.8747e-07 -1.34611 0)
(-1.86779e-08 -1.34611 0)
(-1.85419e-08 -1.34611 0)
(-3.18668e-10 -1.34611 0)
(-3.05436e-10 -1.34611 0)
(-9.53113e-12 -1.34611 0)
(-5.03524e-12 -1.34611 0)
(-2.92181e-13 -1.34611 0)
(-8.50371e-14 -1.34611 0)
(8.86995e-14 -1.34611 0)
(3.16749e-13 -1.34611 0)
(5.95557e-12 -1.34611 0)
(1.1124e-11 -1.34611 0)
(3.6587e-10 -1.34611 0)
(3.26175e-10 -1.34611 0)
(2.04729e-08 -1.34611 0)
(1.73985e-08 -1.34611 0)
(5.07792e-07 -1.34611 0)
(4.88588e-07 -1.34611 0)
(-2.43653e-07 -2.01851 0)
(-2.39082e-07 -2.01851 0)
(-9.29894e-09 -2.01851 0)
(-6.93519e-09 -2.01851 0)
(-1.92035e-10 -2.01851 0)
(-1.02893e-10 -2.01851 0)
(-3.41226e-12 -2.01851 0)
(-1.26421e-12 -2.01851 0)
(-5.77845e-14 -2.01851 0)
(-1.55476e-14 -2.01851 0)
(1.33549e-14 -2.01851 0)
(6.06747e-14 -2.01851 0)
(1.38661e-12 -2.01851 0)
(3.62752e-12 -2.01851 0)
(1.12166e-10 -2.01851 0)
(1.93748e-10 -2.01851 0)
(7.30917e-09 -2.01851 0)
(9.05954e-09 -2.01851 0)
(2.45725e-07 -2.01851 0)
(2.36865e-07 -2.01851 0)
(-9.4697e-08 -2.17125 0)
(-9.36156e-08 -2.17125 0)
(-3.52021e-09 -2.17125 0)
(-2.37883e-09 -2.17125 0)
(-6.82567e-11 -2.17125 0)
(-3.08933e-11 -2.17125 0)
(-9.49881e-13 -2.17125 0)
(-3.04303e-13 -2.17125 0)
(-1.18506e-14 -2.17125 0)
(-3.43296e-15 -2.17125 0)
(1.57514e-15 -2.17125 0)
(1.25124e-14 -2.17125 0)
(3.2335e-13 -2.17125 0)
(9.83381e-13 -2.17125 0)
(3.25231e-11 -2.17125 0)
(6.86692e-11 -2.17125 0)
(2.46337e-09 -2.17125 0)
(3.46805e-09 -2.17125 0)
(9.57902e-08 -2.17125 0)
(9.24879e-08 -2.17125 0)
(-2.70577e-08 -2.21042 0)
(-2.6757e-08 -2.21042 0)
(-1.03111e-09 -2.21042 0)
(-6.86461e-10 -2.21042 0)
(-2.00253e-11 -2.21042 0)
(-8.77034e-12 -2.21042 0)
(-2.65345e-13 -2.21042 0)
(-8.16117e-14 -2.21042 0)
(-3.0722e-15 -2.21042 0)
(-1.02153e-15 -2.21042 0)
(2.03088e-16 -2.21042 0)
(3.10951e-15 -2.21042 0)
(8.63286e-14 -2.21042 0)
(2.73266e-13 -2.21042 0)
(9.16635e-12 -2.21042 0)
(2.01376e-11 -2.21042 0)
(7.08899e-10 -2.21042 0)
(1.01742e-09 -2.21042 0)
(2.73909e-08 -2.21042 0)
(2.64145e-08 -2.21042 0)
(-4.26104e-09 -2.2226 0)
(-4.21365e-09 -2.2226 0)
(-1.7043e-10 -2.2226 0)
(-1.13888e-10 -2.2226 0)
(-3.39615e-12 -2.2226 0)
(-1.48674e-12 -2.2226 0)
(-4.53783e-14 -2.2226 0)
(-1.38926e-14 -2.2226 0)
(-5.02974e-16 -2.2226 0)
(-1.6794e-16 -2.2226 0)
(2.12019e-17 -2.2226 0)
(5.05888e-16 -2.2226 0)
(1.46968e-14 -2.2226 0)
(4.66776e-14 -2.2226 0)
(1.55274e-12 -2.2226 0)
(3.41511e-12 -2.2226 0)
(1.17623e-10 -2.2226 0)
(1.68145e-10 -2.2226 0)
(4.31572e-09 -2.2226 0)
(4.15743e-09 -2.2226 0)
)
;

boundaryField
{
    inlet
    {
        type            fixedValue;
        value           uniform (0 -2.22808 0);
    }
    outlet
    {
        type            zeroGradient;
    }
    left
    {
        type            cyclic;
    }
    right
    {
        type            cyclic;
    }
    frontAndBack
    {
        type            empty;
    }
}


// ************************************************************************* //
