/*--------------------------------*- C++ -*----------------------------------*\
| =========                 |                                                 |
| \\      /  F ield         | OpenFOAM: The Open Source CFD Toolbox           |
|  \\    /   O peration     | Version:  v1712                                 |
|   \\  /    A nd           | Web:      www.OpenFOAM.com                      |
|    \\/     M anipulation  |                                                 |
\*---------------------------------------------------------------------------*/
FoamFile
{
    version     2.0;
    format      ascii;
    class       volScalarField;
    location    "0";
    object      p;
}
// * * * * * * * * * * * * * * * * * * * * * * * * * * * * * * * * * * * * * //

dimensions      [1 -1 -2 0 0 0 0];


internalField   nonuniform List<scalar> 
1000
(
2.37037037037037
2.37037037037037
2.37037037037037
2.37037037037037
2.37037037037037
2.37037037037037
2.37037037037037
2.37037037037037
2.37037037037037
2.37037037037037
2.37037037037037
2.37037037037037
2.37037037037037
2.37037037037037
2.37037037037037
2.37037037037037
2.37037037037037
2.37037037037037
2.37037037037037
2.37037037037037
2.37037037037037
2.37037037037037
2.37037037037037
2.37037037037037
2.37037037037037
2.37037037037037
2.37037037037037
2.37037037037037
2.37037037037037
2.37037037037037
2.37037037037037
2.37037037037037
2.37037037037037
2.37037037037037
2.37037037037037
2.37037037037037
2.37037037037037
2.37037037037037
2.37037037037037
2.37037037037037
2.37037037037037
2.37037037037037
2.37037037037036
2.37037037037036
2.37037037037036
2.37037037037036
2.37037037037036
2.37037037037035
2.37037037037035
2.37037037037035
2.37037037037034
2.37037037037034
2.37037037037033
2.37037037037032
2.37037037037032
2.3703703703703
2.37037037037029
2.37037037037028
2.37037037037026
2.37037037037024
2.37037037037022
2.37037037037019
2.37037037037016
2.37037037037012
2.37037037037008
2.37037037037003
2.37037037036997
2.3703703703699
2.37037037036982
2.37037037036972
2.37037037036961
2.37037037036948
2.37037037036932
2.37037037036914
2.37037037036892
2.37037037036868
2.37037037036838
2.37037037036803
2.37037037036763
2.37037037036715
2.37037037036659
2.37037037036594
2.37037037036517
2.37037037036427
2.37037037036321
2.37037037036197
2.37037037036051
2.3703703703588
2.37037037035679
2.37037037035443
2.37037037035166
2.37037037034842
2.37037037034461
2.37037037034014
2.37037037033489
2.37037037032874
2.37037037032152
2.37037037031304
2.37037037030309
2.37037037029141
2.37037037027771
2.37037037026164
2.37037037024277
2.37037037022063
2.37037037019465
2.37037037016416
2.37037037012838
2.37037037008639
2.37037037003712
2.3703703699793
2.37037036991144
2.3703703698318
2.37037036973836
2.3703703696287
2.37037036950001
2.37037036934899
2.37037036917177
2.3703703689638
2.37037036871974
2.37037036843334
2.37037036809724
2.37037036770283
2.37037036723998
2.37037036669683
2.37037036605943
2.37037036531143
2.37037036443365
2.37037036340357
2.37037036219475
2.37037036077619
2.3703703591115
2.37037035715796
2.37037035486546
2.37037035217519
2.37037034901813
2.37037034531328
2.3703703409656
2.37037033586356
2.37037032987625
2.37037032285008
2.3703703146048
2.37037030492886
2.37037029357405
2.37037028024905
2.37037026461202
2.3703702462618
2.37037022472762
2.37037019945702
2.3703701698017
2.37037013500085
2.37037009416169
2.37037004623649
2.37036998999575
2.37036992399664
2.37036984654597
2.37036975565677
2.37036964899733
2.37036952383133
2.37036937694768
2.37036920457817
2.37036900230071
2.37036876492597
2.37036848636423
2.37036815946911
2.37036777585429
2.37036732567836
2.37036679739231
2.37036617744332
2.37036544992701
2.37036459617951
2.37036359429865
2.37036241858207
2.37036103886798
2.37035941976136
2.3703575197261
2.37035529001951
2.3703526734421
2.3703496028704
2.37034599953535
2.3703417710021
2.37033680879934
2.37033098563764
2.37032415214525
2.37031613303812
2.37030672262579
2.37029567953828
2.3702827205391
2.37026751326615
2.37024966771509
2.37022872624759
2.37020415186977
2.37017531448176
2.37014147474866
2.3701017651825
2.37005516795513
2.37000048887982
2.36993632690375
2.3698610383419
2.36977269495327
2.36966903480882
2.36954740472551
2.36940469283706
2.36923724963724
2.36904079556008
2.36881031285002
2.36853991911823
2.36822271957531
2.36785063447087
2.3674141977546
2.36690232239899
2.36630202719401
2.36559811914302
2.36477282487065
2.36380536371837
2.36267145448881
2.36134274715829
2.3597861703915
2.3579631854776
2.35582893752821
2.35333129566169
2.35040977575207
2.34699434255467
2.34300409316708
2.33834583152392
2.3329125547965
2.32658188817825
2.31921452571855
2.31065276281279
2.30071924174895
2.28921607604485
2.27592457203547
2.26060582561824
2.24300253412599
2.22284242027181
2.19984370447828
2.17372306532543
2.14420647102413
2.11104311908465
2.07402245823423
2.03299386642191
1.98788802334074
1.93873838446531
1.88570052637804
1.82906663535429
1.76927223705583
1.7068925950087
1.64262714799622
1.57727187532006
1.51168134788431
1.44672404607064
1.38323583692209
1.32197692490525
1.26359697906822
1.20861165196228
1.15739174557239
1.11016434552233
1.06702375782175
1.02794926687816
0.992826593452595
0.961470307837311
0.933645118777331
0.909084699166238
0.88750737475889
0.868628515208969
0.852169810766015
0.837865813063072
0.825468200555053
0.814748235690582
0.805497843110699
0.797529678949021
0.790676495669839
0.784790043665714
0.779739694575316
0.775410923749074
0.771703750636698
0.768531205389086
0.765817866565334
0.763498497318471
0.761516794655982
0.759824257313685
0.75837917157799
0.757145710331506
0.756093138112495
0.755195113626523
0.754429080589491
0.753775737759797
0.75321857934583
0.752743497516738
0.752338439403043
0.751993111682158
0.75169872655718
0.75144778362651
0.751233882789324
0.75105156392794
0.750896169648652
0.750763727847305
0.75065085129626
0.750554651829281
0.750472667033753
0.750402797650334
0.750343254132795
0.750292511039798
0.750249268119596
0.750212417111872
0.750181013431469
0.750154252019457
0.750131446750697
0.750112012875882
0.750095452052219
0.750081339581999
0.750069313534127
0.750059065471228
0.750050332545766
0.750042890763276
0.750036549240595
0.750031145312254
0.75002654035983
0.750022616257568
0.750019272343194
0.750016422836437
0.750013994639043
0.75001192545997
0.750010162217705
0.750008659678731
0.750007379297277
0.750006288226577
0.750005358476295
0.750004566194527
0.750003891055927
0.75000331574032
0.750002825488372
0.75000240772299
0.750002051726641
0.750001748366442
0.750001489859842
0.750001269574983
0.750001081860562
0.750000921900849
0.75000078559215
0.750000669437519
0.750000570457058
0.750000486111465
0.750000414236884
0.750000352989401
0.750000300797735
0.75000025632293
0.750000218423998
0.750000186128657
0.750000158608382
0.750000135157149
0.750000115173327
0.750000098144236
0.750000083633002
0.750000071267344
0.750000060730025
0.750000051750714
0.750000044099051
0.750000037578731
0.750000032022484
0.75000002728776
0.750000023253096
0.75000001981498
0.750000016885214
0.75000001438863
0.750000012261181
0.750000010448291
0.750000008903445
0.750000007587017
0.750000006465229
0.750000005509305
0.75000000469472
0.750000004000577
0.750000003409066
0.750000002905016
0.75000000247549
0.750000002109474
0.750000001797575
0.750000001531794
0.750000001305307
0.75000000111231
0.750000000947848
0.750000000807703
0.750000000688279
0.750000000586513
0.750000000499794
0.750000000425897
0.750000000362925
0.750000000309264
0.750000000263538
0.750000000224573
0.750000000191367
0.750000000163073
0.750000000138962
0.750000000118416
0.750000000100906
0.750000000085987
0.750000000073274
0.75000000006244
0.750000000053208
0.75000000004534
0.750000000038638
0.750000000032925
0.750000000028057
0.750000000023908
0.750000000020373
0.750000000017362
0.750000000014794
0.750000000012607
0.750000000010743
0.750000000009156
0.750000000007802
0.750000000006647
0.750000000005665
0.750000000004827
0.750000000004114
0.750000000003506
0.750000000002988
0.750000000002546
0.75000000000217
0.750000000001849
0.750000000001574
0.750000000001343
0.750000000001145
0.750000000000976
0.750000000000832
0.75000000000071
0.750000000000603
0.750000000000515
0.750000000000439
0.750000000000373
0.750000000000319
0.750000000000272
0.750000000000232
0.750000000000199
0.750000000000169
0.750000000000144
0.750000000000123
0.750000000000105
0.750000000000089
0.750000000000076
0.750000000000065
0.750000000000054
0.750000000000047
0.75000000000004
0.750000000000034
0.750000000000029
0.750000000000026
0.75000000000002
0.750000000000019
0.750000000000016
0.750000000000014
0.750000000000012
0.75000000000001
0.750000000000008
0.750000000000008
0.750000000000007
0.750000000000006
0.750000000000005
0.750000000000005
0.750000000000004
0.750000000000004
0.750000000000003
0.750000000000003
0.750000000000003
0.750000000000003
0.750000000000003
0.750000000000002
0.750000000000002
0.750000000000002
0.750000000000002
0.75
0.750000000000002
0.75
0.750000000000002
0.75
0.750000000000002
0.75
0.750000000000002
0.75
0.750000000000002
0.75
0.750000000000002
0.75
0.750000000000002
0.75
0.750000000000002
0.75
0.750000000000002
0.75
0.750000000000002
0.75
0.750000000000002
0.75
0.750000000000002
0.75
0.750000000000002
0.75
0.750000000000002
0.75
0.750000000000002
0.75
0.750000000000002
0.75
0.750000000000002
0.75
0.750000000000002
0.75
0.750000000000002
0.75
0.750000000000002
0.75
0.750000000000002
0.75
0.750000000000002
0.75
0.750000000000002
0.75
0.750000000000002
0.75
0.750000000000002
0.75
0.750000000000002
0.75
0.750000000000002
0.75
0.750000000000002
0.75
0.750000000000002
0.75
0.750000000000002
0.75
0.750000000000002
0.75
0.750000000000002
0.75
0.750000000000002
0.75
0.750000000000002
0.75
0.750000000000002
0.75
0.750000000000002
0.75
0.750000000000002
0.75
0.750000000000002
0.75
0.750000000000002
0.75
0.750000000000002
0.75
0.750000000000002
0.75
0.750000000000002
0.75
0.750000000000002
0.75
0.750000000000002
0.75
0.750000000000002
0.75
0.750000000000002
0.75
0.750000000000002
0.75
0.750000000000002
0.75
0.750000000000002
0.75
0.750000000000002
0.75
0.750000000000002
0.75
0.750000000000002
0.75
0.750000000000002
0.75
0.750000000000002
0.75
0.750000000000002
0.75
0.750000000000002
0.75
0.750000000000002
0.75
0.750000000000002
0.75
0.750000000000002
0.75
0.750000000000002
0.75
0.750000000000002
0.75
0.750000000000002
0.75
0.750000000000002
0.75
0.750000000000002
0.75
0.750000000000002
0.75
0.750000000000002
0.75
0.750000000000002
0.75
0.750000000000002
0.75
0.750000000000002
0.75
0.750000000000002
0.75
0.750000000000002
0.75
0.750000000000002
0.75
0.750000000000002
0.75
0.750000000000002
0.75
0.750000000000002
0.75
0.750000000000002
0.75
0.750000000000002
0.75
0.750000000000002
0.75
0.750000000000002
0.75
0.750000000000002
0.75
0.750000000000002
0.75
0.750000000000002
0.75
0.750000000000002
0.75
0.750000000000002
0.75
0.750000000000002
0.75
0.750000000000002
0.75
0.750000000000002
0.75
0.750000000000002
0.75
0.750000000000002
0.75
0.750000000000002
0.75
0.750000000000002
0.75
0.750000000000002
0.75
0.750000000000002
0.75
0.750000000000002
0.75
0.750000000000002
0.75
0.750000000000002
0.75
0.750000000000002
0.75
0.750000000000002
0.75
0.750000000000002
0.75
0.750000000000002
0.75
0.750000000000002
0.75
0.750000000000002
0.75
0.750000000000002
0.75
0.750000000000002
0.75
0.750000000000002
0.75
0.750000000000002
0.75
0.750000000000002
0.75
0.750000000000002
0.75
0.750000000000002
0.75
0.750000000000002
0.75
0.750000000000002
0.75
0.750000000000002
0.75
0.750000000000002
0.75
0.750000000000002
0.75
0.750000000000002
0.75
0.750000000000002
0.75
0.750000000000002
0.75
0.750000000000002
0.75
0.750000000000002
0.75
0.750000000000002
0.75
0.750000000000002
0.75
0.750000000000002
0.75
0.750000000000002
0.75
0.750000000000002
0.75
0.750000000000002
0.75
0.750000000000002
0.75
0.750000000000002
0.75
0.750000000000002
0.75
0.750000000000002
0.75
0.750000000000002
0.75
0.750000000000002
0.75
0.750000000000002
0.75
0.750000000000002
0.75
0.750000000000002
0.75
0.750000000000002
0.75
0.750000000000002
0.75
0.750000000000002
0.75
0.750000000000002
0.75
0.750000000000002
0.75
0.750000000000002
0.75
0.750000000000002
0.75
0.750000000000002
0.75
0.750000000000002
0.75
0.750000000000002
0.75
0.750000000000002
0.75
0.750000000000002
0.75
0.750000000000002
0.75
0.750000000000002
0.75
0.750000000000002
0.75
0.750000000000002
0.75
0.750000000000002
0.75
0.750000000000002
0.75
0.750000000000002
0.75
0.750000000000002
0.75
0.750000000000002
0.75
0.750000000000002
0.75
0.750000000000002
0.75
0.750000000000002
0.75
0.750000000000002
0.75
0.750000000000002
0.75
0.750000000000002
0.75
0.750000000000002
0.75
0.750000000000002
0.75
0.750000000000002
0.75
0.750000000000002
0.75
0.750000000000002
0.75
0.750000000000002
0.75
0.750000000000002
0.75
0.750000000000002
0.75
0.750000000000002
0.75
0.750000000000002
0.75
0.750000000000002
0.75
0.750000000000002
0.75
0.750000000000002
0.75
0.750000000000002
0.75
0.750000000000002
0.75
0.750000000000002
0.75
0.750000000000002
0.75
0.750000000000002
0.75
0.750000000000002
0.75
0.750000000000002
0.75
0.750000000000002
0.75
0.750000000000002
0.75
0.750000000000002
0.75
0.750000000000002
0.75
0.750000000000002
0.75
0.750000000000002
0.75
0.750000000000002
0.75
0.750000000000002
0.75
0.750000000000002
0.75
0.750000000000002
0.75
0.750000000000002
0.75
0.750000000000002
0.75
0.750000000000002
0.75
0.750000000000002
0.75
0.750000000000002
0.75
0.750000000000002
0.75
0.750000000000002
0.75
0.750000000000002
0.75
0.750000000000002
0.75
0.750000000000002
0.75
0.750000000000002
0.75
0.750000000000002
0.75
0.750000000000002
0.75
0.750000000000002
0.75
0.750000000000002
0.75
0.750000000000002
0.75
0.750000000000002
0.75
0.750000000000002
0.75
0.750000000000002
0.75
0.750000000000002
0.75
0.750000000000002
0.75
0.750000000000002
0.75
0.750000000000002
0.75
0.750000000000002
0.75
0.750000000000002
0.75
0.750000000000002
0.75
0.750000000000002
0.75
0.750000000000002
0.75
0.750000000000002
0.75
0.750000000000002
0.75
0.750000000000002
0.75
0.750000000000002
0.75
0.750000000000002
0.75
0.750000000000002
0.75
0.750000000000002
0.75
0.750000000000002
0.75
0.750000000000002
0.75
0.750000000000002
0.75
0.750000000000002
0.75
0.750000000000002
0.75
0.750000000000002
0.75
0.750000000000002
0.75
0.750000000000002
0.75
0.750000000000002
0.75
0.750000000000002
0.75
0.750000000000002
0.75
0.750000000000002
0.75
0.750000000000002
0.75
0.750000000000002
0.75
0.750000000000002
0.75
0.750000000000002
0.75
0.750000000000002
0.75
0.750000000000002
0.75
0.750000000000002
0.75
0.750000000000002
0.75
0.750000000000002
0.75
0.750000000000002
0.75
0.750000000000002
0.75
0.750000000000002
0.75
0.750000000000002
0.75
0.750000000000002
0.75
0.750000000000002
0.75
0.750000000000002
0.75
0.750000000000002
0.75
0.750000000000002
0.75
0.750000000000002
0.75
0.750000000000002
0.75
0.750000000000002
0.75
0.750000000000002
0.75
0.750000000000002
0.75
0.750000000000002
0.75
0.750000000000002
0.75
0.750000000000002
0.75
0.750000000000002
)
;

boundaryField
{
    inlet
    {
        type            fixedValue;
        value           uniform 0.75;
    }
    outlet
    {
        type            zeroGradient;
    }
    left
    {
        type            empty;
    }
    right
    {
        type            empty;
    }
    frontAndBack
    {
        type            empty;
    }
}


// ************************************************************************* //
