/*--------------------------------*- C++ -*----------------------------------*\
| =========                 |                                                 |
| \\      /  F ield         | OpenFOAM: The Open Source CFD Toolbox           |
|  \\    /   O peration     | Version:  v1712                                 |
|   \\  /    A nd           | Web:      www.OpenFOAM.com                      |
|    \\/     M anipulation  |                                                 |
\*---------------------------------------------------------------------------*/
FoamFile
{
    version     2.0;
    format      ascii;
    class       volScalarField;
    location    "0";
    object      potential;
}
// * * * * * * * * * * * * * * * * * * * * * * * * * * * * * * * * * * * * * //

dimensions      [0 2 -2 0 0 0 0];


internalField   nonuniform List<scalar> 
1000
(
0
0
0
0
0
0
0
0
0
0
0
0
5.19569499072151e-17
5.19569499072151e-17
5.19569499072151e-17
5.19569499072151e-17
5.19569499072151e-17
5.19569499072151e-17
5.19569499072151e-17
1.0391389981443e-16
1.0391389981443e-16
1.0391389981443e-16
1.55870849721645e-16
1.55870849721645e-16
2.0782779962886e-16
2.59784749536076e-16
2.59784749536076e-16
3.11741699443291e-16
3.63698649350506e-16
4.67612549164936e-16
5.19569499072151e-16
6.23483398886581e-16
7.27397298701012e-16
8.31311198515442e-16
9.87182048237087e-16
1.14305289795873e-15
1.35088069758759e-15
1.61066544712367e-15
1.87045019665974e-15
2.23414884601025e-15
2.59784749536076e-15
3.06546004452569e-15
3.58502954359784e-15
4.20851294248442e-15
4.93591024118544e-15
5.76722143970088e-15
6.75440348793796e-15
7.94941333580391e-15
9.30029403339151e-15
1.09629164304224e-14
1.28333666270821e-14
1.50675154730924e-14
1.76653629684531e-14
2.07308230129788e-14
2.43678095064839e-14
2.85763224489683e-14
3.35122326901537e-14
3.93314110797618e-14
4.61897284675142e-14
5.41910987532254e-14
6.35953066864313e-14
7.46101800667609e-14
8.75994175435647e-14
1.02770846916471e-13
1.20592080734646e-13
1.41530731547254e-13
1.66106368853367e-13
1.94942476051871e-13
2.28766450441468e-13
2.68409603220673e-13
3.15014987287445e-13
3.69673698589836e-13
4.33788574775339e-13
5.09074195190894e-13
5.97401010033159e-13
7.01055125098053e-13
8.22738301780751e-13
9.65464043175871e-13
1.13297324967673e-12
1.32957834812563e-12
1.56026720571367e-12
1.83096291473026e-12
2.14867966341288e-12
2.52152273594706e-12
2.95900025416581e-12
3.47243883314891e-12
4.07493162427297e-12
4.78196179861036e-12
5.61171428862858e-12
6.58538752988979e-12
7.72802477224927e-12
9.06892973545468e-12
1.06424459633947e-11
1.2489047920047e-11
1.46560164298272e-11
1.71990493430359e-11
2.01832487179067e-11
2.36852510555528e-11
2.77948899223638e-11
3.26176379266513e-11
3.82771526091945e-11
4.49186536449841e-11
5.27125078727658e-11
6.18586975927325e-11
7.25918603906652e-11
8.51873161441222e-11
9.99682370815264e-11
1.17313856980251e-10
1.3766908320235e-10
1.61556135051343e-10
1.89587896708333e-10
2.22483452360038e-10
2.610867387438e-10
3.06388107281801e-10
3.59549782986515e-10
4.21935583836056e-10
4.95145991715367e-10
5.81059198406643e-10
6.81879321638848e-10
8.00192778378363e-10
9.39034945595718e-10
1.10196768003485e-09
1.29317107418665e-09
1.5175503317349e-09
1.78086181511678e-09
2.08986065521752e-09
2.45247423562616e-09
2.8780051364819e-09
3.37737034427143e-09
3.96338078021948e-09
4.65107044756645e-09
5.45808174430894e-09
6.40511821606122e-09
7.516475867825e-09
8.82066612781883e-09
1.03511476091605e-08
1.2147184178895e-08
1.42548526630376e-08
1.67282245554429e-08
1.96307532683671e-08
2.30369023074074e-08
2.70340551570235e-08
3.17247574827111e-08
3.72293475555044e-08
4.36890437417678e-08
5.1269567409356e-08
6.01653940972119e-08
7.06047432530085e-08
8.28554326903069e-08
9.72317494795265e-08
1.14102512939173e-07
1.33900536515985e-07
1.57133731348831e-07
1.84398136552172e-07
2.16393210406208e-07
2.53939774676709e-07
2.98001072091372e-07
3.49707478364118e-07
4.1038550092755e-07
4.81591810007739e-07
5.65153173982893e-07
6.63213323928687e-07
7.78287949738002e-07
9.13329238030591e-07
1.07180160813634e-06
1.25777058877052e-06
1.47600711501217e-06
1.73210992116078e-06
2.03264916954143e-06
2.38533499859048e-06
2.79921531397535e-06
3.28490789660423e-06
3.85487277940218e-06
4.5237318801802e-06
5.30864408696188e-06
6.22974541549308e-06
7.31066552575057e-06
8.57913384174396e-06
1.00676908152982e-05
1.18145225674846e-05
1.38644403029496e-05
1.62700295986332e-05
1.90929990181572e-05
2.24057626033038e-05
2.62932967763858e-05
3.08553192046121e-05
3.62088454011943e-05
4.24911884864518e-05
4.98634788344178e-05
5.8514793584408e-05
6.86670015210752e-05
8.05804470145732e-05
9.45606180128311e-05
0.000110965968009686
0.000130217091088065
0.000152807483259087
0.000179316163198928
0.000210422472066031
0.000246923426443504
0.000289754061826818
0.000340011277878571
0.000398981782490556
0.000468174831319862
0.000549360574893203
0.000644614958785192
0.000756372276135904
0.000887486648360777
0.00104130391186603
0.00122174561835478
0.00143340711606038
0.00168167197054118
0.00197284530703964
0.00231430901069752
0.00271470210239563
0.00318413000907118
0.00373440685492574
0.00437933529292856
0.00513502874237355
0.00602028115074087
0.00705698948903293
0.0082706340241304
0.00969082085893534
0.0113518901149363
0.0132935912191908
0.0155618237466907
0.0182094377783513
0.0212970812974747
0.0248940732142051
0.0290792685680781
0.0339418666940943
0.0395820931191004
0.0461116614132654
0.0536538924087889
0.0623433362672593
0.0723247103795231
0.08375093755704
0.096780051532683
0.111570740489514
0.128276337008349
0.147037148869935
0.167971172769855
0.191163449495057
0.216654599332668
0.244429395737516
0.274406544175087
0.306431058208818
0.340270679575635
0.37561759535161
0.412096225036921
0.44927711379227
0.486696087173496
0.523876975928845
0.560355605614156
0.595702521390131
0.629542142756948
0.661566656790679
0.69154380522825
0.719318601633098
0.744809751470709
0.768002028195911
0.788936052095831
0.807696863957417
0.824402460476252
0.839193149433083
0.852222263408726
0.863648490586243
0.873629864698507
0.882319308556977
0.889861539552501
0.896391107846666
0.902031334271672
0.906893932397688
0.911079127751561
0.914676119668291
0.917763763187415
0.920411377219075
0.922679609746575
0.92462131085083
0.926282380106831
0.927702566941636
0.928916211476733
0.929952919815025
0.930838172223392
0.931593865672837
0.93223879411084
0.932789070956695
0.93325849886337
0.933658891955068
0.934000355658726
0.934291528995225
0.934539793849706
0.934751455347411
0.9349318970539
0.935085714317405
0.93521682868963
0.935328586006981
0.935423840390873
0.935505026134446
0.935574219183275
0.935633189687887
0.935683446903939
0.935726277539322
0.9357627784937
0.935793884802567
0.935820393482507
0.935842983874678
0.935862234997756
0.935878640347753
0.935892620518751
0.935904533964245
0.935914686172182
0.935923337486932
0.935930709777279
0.935936992120365
0.935942345646561
0.93594690766899
0.935950795203163
0.935954107966748
0.935956930936167
0.935959336525463
0.935961386443198
0.935963133274951
0.935964621831924
0.93596589030024
0.93596697122035
0.935967892321679
0.935968677233886
0.935969346092987
0.935969916057869
0.935970401750452
0.935970815630767
0.935971168316596
0.935971468855845
0.935971724958651
0.935971943195177
0.935972129164158
0.935972287636528
0.935972422677816
0.935972537752442
0.935972635812592
0.935972719373956
0.935972790580265
0.935972851258288
0.935972902964694
0.935972947025991
0.935972984572556
0.935973016567629
0.935973043832035
0.935973067065229
0.935973086863253
0.935973103734016
0.935973118110333
0.935973130361023
0.935973140800372
0.935973149696199
0.935973157276722
0.935973163736418
0.935973169241008
0.935973173931711
0.935973177928864
0.935973181335013
0.935973184237541
0.935973186710913
0.935973188818582
0.935973190614618
0.9359731921451
0.93597319344929
0.935973194560648
0.935973195507684
0.935973196314696
0.935973197002385
0.935973197588396
0.935973198087761
0.935973198513292
0.935973198875905
0.935973199184904
0.935973199448216
0.935973199672595
0.935973199863798
0.935973200026731
0.935973200165573
0.935973200283887
0.935973200384707
0.93597320047062
0.93597320054383
0.935973200606216
0.935973200659378
0.935973200704679
0.935973200743283
0.935973200776178
0.93597320080421
0.935973200828097
0.935973200848452
0.935973200865798
0.935973200880579
0.935973200893174
0.935973200903907
0.935973200913053
0.935973200920847
0.935973200927489
0.935973200933148
0.935973200937971
0.935973200942081
0.935973200945583
0.935973200948567
0.93597320095111
0.935973200953277
0.935973200955123
0.935973200956697
0.935973200958038
0.935973200959181
0.935973200960154
0.935973200960984
0.935973200961691
0.935973200962294
0.935973200962807
0.935973200963244
0.935973200963617
0.935973200963935
0.935973200964206
0.935973200964436
0.935973200964633
0.935973200964801
0.935973200964943
0.935973200965065
0.935973200965169
0.935973200965257
0.935973200965332
0.935973200965396
0.935973200965451
0.935973200965498
0.935973200965537
0.935973200965571
0.9359732009656
0.935973200965624
0.935973200965645
0.935973200965663
0.935973200965678
0.935973200965691
0.935973200965702
0.935973200965712
0.93597320096572
0.935973200965727
0.935973200965733
0.935973200965737
0.935973200965742
0.935973200965745
0.935973200965748
0.935973200965751
0.935973200965753
0.935973200965755
0.935973200965757
0.935973200965758
0.935973200965759
0.93597320096576
0.935973200965761
0.935973200965762
0.935973200965762
0.935973200965763
0.935973200965763
0.935973200965764
0.935973200965764
0.935973200965764
0.935973200965765
0.935973200965765
0.935973200965765
0.935973200965765
0.935973200965765
0.935973200965765
0.935973200965765
0.935973200965766
0.935973200965766
0.935973200965766
0.935973200965766
0.935973200965766
0.935973200965766
0.935973200965766
0.935973200965766
0.935973200965766
0.935973200965766
0.935973200965766
0.935973200965766
0.935973200965766
0.935973200965766
0.935973200965766
0.935973200965766
0.935973200965766
0.935973200965766
0.935973200965766
0.935973200965766
0.935973200965766
0.935973200965766
0.935973200965766
0.935973200965766
0.935973200965766
0.935973200965766
0.935973200965766
0.935973200965766
0.935973200965766
0.935973200965766
0.935973200965766
0.935973200965766
0.935973200965766
0.935973200965766
0.935973200965766
0.935973200965766
0.935973200965766
0.935973200965766
0.935973200965766
0.935973200965766
0.935973200965766
0.935973200965766
0.935973200965766
0.935973200965766
0.935973200965766
0.935973200965766
0.935973200965766
0.935973200965766
0.935973200965766
0.935973200965766
0.935973200965766
0.935973200965766
0.935973200965766
0.935973200965766
0.935973200965766
0.935973200965766
0.935973200965766
0.935973200965766
0.935973200965766
0.935973200965766
0.935973200965766
0.935973200965766
0.935973200965766
0.935973200965766
0.935973200965766
0.935973200965766
0.935973200965766
0.935973200965766
0.935973200965766
0.935973200965766
0.935973200965766
0.935973200965766
0.935973200965766
0.935973200965766
0.935973200965766
0.935973200965766
0.935973200965766
0.935973200965766
0.935973200965766
0.935973200965766
0.935973200965766
0.935973200965766
0.935973200965766
0.935973200965766
0.935973200965766
0.935973200965766
0.935973200965766
0.935973200965766
0.935973200965766
0.935973200965766
0.935973200965766
0.935973200965766
0.935973200965766
0.935973200965766
0.935973200965766
0.935973200965766
0.935973200965766
0.935973200965766
0.935973200965766
0.935973200965766
0.935973200965766
0.935973200965766
0.935973200965766
0.935973200965766
0.935973200965766
0.935973200965766
0.935973200965766
0.935973200965766
0.935973200965766
0.935973200965766
0.935973200965766
0.935973200965766
0.935973200965766
0.935973200965766
0.935973200965766
0.935973200965766
0.935973200965766
0.935973200965766
0.935973200965766
0.935973200965766
0.935973200965766
0.935973200965766
0.935973200965766
0.935973200965766
0.935973200965766
0.935973200965766
0.935973200965766
0.935973200965766
0.935973200965766
0.935973200965766
0.935973200965766
0.935973200965766
0.935973200965766
0.935973200965766
0.935973200965766
0.935973200965766
0.935973200965766
0.935973200965766
0.935973200965766
0.935973200965766
0.935973200965766
0.935973200965766
0.935973200965766
0.935973200965766
0.935973200965766
0.935973200965766
0.935973200965766
0.935973200965766
0.935973200965766
0.935973200965766
0.935973200965766
0.935973200965766
0.935973200965766
0.935973200965766
0.935973200965766
0.935973200965766
0.935973200965766
0.935973200965766
0.935973200965766
0.935973200965766
0.935973200965766
0.935973200965766
0.935973200965766
0.935973200965766
0.935973200965766
0.935973200965766
0.935973200965766
0.935973200965766
0.935973200965766
0.935973200965766
0.935973200965766
0.935973200965766
0.935973200965766
0.935973200965766
0.935973200965766
0.935973200965766
0.935973200965766
0.935973200965766
0.935973200965766
0.935973200965766
0.935973200965766
0.935973200965766
0.935973200965766
0.935973200965766
0.935973200965766
0.935973200965766
0.935973200965766
0.935973200965766
0.935973200965766
0.935973200965766
0.935973200965766
0.935973200965766
0.935973200965766
0.935973200965766
0.935973200965766
0.935973200965766
0.935973200965766
0.935973200965766
0.935973200965766
0.935973200965766
0.935973200965766
0.935973200965766
0.935973200965766
0.935973200965766
0.935973200965766
0.935973200965766
0.935973200965766
0.935973200965766
0.935973200965766
0.935973200965766
0.935973200965766
0.935973200965766
0.935973200965766
0.935973200965766
0.935973200965766
0.935973200965766
0.935973200965766
0.935973200965766
0.935973200965766
0.935973200965766
0.935973200965766
0.935973200965766
0.935973200965766
0.935973200965766
0.935973200965766
0.935973200965766
0.935973200965766
0.935973200965766
0.935973200965766
0.935973200965766
0.935973200965766
0.935973200965766
0.935973200965766
0.935973200965766
0.935973200965766
0.935973200965766
0.935973200965766
0.935973200965766
0.935973200965766
0.935973200965766
0.935973200965766
0.935973200965766
0.935973200965766
0.935973200965766
0.935973200965766
0.935973200965766
0.935973200965766
0.935973200965766
0.935973200965766
0.935973200965766
0.935973200965766
0.935973200965766
0.935973200965766
0.935973200965766
0.935973200965766
0.935973200965766
0.935973200965766
0.935973200965766
0.935973200965766
0.935973200965766
0.935973200965766
0.935973200965766
0.935973200965766
0.935973200965766
0.935973200965766
0.935973200965766
0.935973200965766
0.935973200965766
0.935973200965766
0.935973200965766
0.935973200965766
0.935973200965766
0.935973200965766
0.935973200965766
0.935973200965766
0.935973200965766
0.935973200965766
0.935973200965766
0.935973200965766
0.935973200965766
0.935973200965766
0.935973200965766
0.935973200965766
0.935973200965766
0.935973200965766
0.935973200965766
0.935973200965766
0.935973200965766
0.935973200965766
0.935973200965766
0.935973200965766
0.935973200965766
0.935973200965766
0.935973200965766
0.935973200965766
0.935973200965766
0.935973200965766
0.935973200965766
0.935973200965766
0.935973200965766
0.935973200965766
0.935973200965766
0.935973200965766
0.935973200965766
0.935973200965766
0.935973200965766
0.935973200965766
0.935973200965766
0.935973200965766
0.935973200965766
0.935973200965766
0.935973200965766
0.935973200965766
0.935973200965766
0.935973200965766
0.935973200965766
0.935973200965766
0.935973200965766
0.935973200965766
0.935973200965766
0.935973200965766
0.935973200965766
0.935973200965766
0.935973200965766
0.935973200965766
0.935973200965766
0.935973200965766
0.935973200965766
0.935973200965766
0.935973200965766
0.935973200965766
0.935973200965766
0.935973200965766
0.935973200965766
0.935973200965766
0.935973200965766
0.935973200965766
0.935973200965766
0.935973200965766
0.935973200965766
0.935973200965766
0.935973200965766
0.935973200965766
0.935973200965766
0.935973200965766
0.935973200965766
0.935973200965766
0.935973200965766
0.935973200965766
0.935973200965766
0.935973200965766
0.935973200965766
0.935973200965766
0.935973200965766
0.935973200965766
0.935973200965766
0.935973200965766
0.935973200965766
0.935973200965766
0.935973200965766
0.935973200965766
0.935973200965766
0.935973200965766
0.935973200965766
0.935973200965766
0.935973200965766
0.935973200965766
0.935973200965766
0.935973200965766
0.935973200965766
0.935973200965766
0.935973200965766
0.935973200965766
0.935973200965766
0.935973200965766
0.935973200965766
0.935973200965766
0.935973200965766
0.935973200965766
0.935973200965766
0.935973200965766
0.935973200965766
0.935973200965766
0.935973200965766
0.935973200965766
0.935973200965766
0.935973200965766
0.935973200965766
0.935973200965766
0.935973200965766
0.935973200965766
0.935973200965766
0.935973200965766
0.935973200965766
0.935973200965766
0.935973200965766
0.935973200965766
0.935973200965766
0.935973200965766
0.935973200965766
0.935973200965766
0.935973200965766
0.935973200965766
0.935973200965766
0.935973200965766
0.935973200965766
0.935973200965766
0.935973200965766
0.935973200965766
0.935973200965766
0.935973200965766
0.935973200965766
0.935973200965766
0.935973200965766
0.935973200965766
0.935973200965766
0.935973200965766
0.935973200965766
0.935973200965766
0.935973200965766
0.935973200965766
0.935973200965766
0.935973200965766
0.935973200965766
0.935973200965766
0.935973200965766
0.935973200965766
0.935973200965766
0.935973200965766
0.935973200965766
0.935973200965766
0.935973200965766
0.935973200965766
0.935973200965766
0.935973200965766
0.935973200965766
0.935973200965766
0.935973200965766
0.935973200965766
0.935973200965766
0.935973200965766
0.935973200965766
0.935973200965766
0.935973200965766
0.935973200965766
0.935973200965766
0.935973200965766
0.935973200965766
0.935973200965766
0.935973200965766
0.935973200965766
0.935973200965766
0.935973200965766
0.935973200965766
0.935973200965766
0.935973200965766
0.935973200965766
0.935973200965766
0.935973200965766
0.935973200965766
0.935973200965766
0.935973200965766
0.935973200965766
0.935973200965766
0.935973200965766
0.935973200965766
0.935973200965766
0.935973200965766
0.935973200965766
0.935973200965766
0.935973200965766
0.935973200965766
0.935973200965766
0.935973200965766
0.935973200965766
0.935973200965766
0.935973200965766
0.935973200965766
0.935973200965766
0.935973200965766
0.935973200965766
0.935973200965766
0.935973200965766
0.935973200965766
0.935973200965766
0.935973200965766
0.935973200965766
0.935973200965766
0.935973200965766
0.935973200965766
0.935973200965766
0.935973200965766
0.935973200965766
0.935973200965766
0.935973200965766
0.935973200965766
0.935973200965766
0.935973200965766
0.935973200965766
0.935973200965766
0.935973200965766
0.935973200965766
0.935973200965766
0.935973200965766
0.935973200965766
0.935973200965766
0.935973200965766
0.935973200965766
0.935973200965766
0.935973200965766
0.935973200965766
0.935973200965766
0.935973200965766
0.935973200965766
0.935973200965766
0.935973200965766
0.935973200965766
0.935973200965766
0.935973200965766
0.935973200965766
0.935973200965766
0.935973200965766
0.935973200965766
0.935973200965766
0.935973200965766
0.935973200965766
0.935973200965766
0.935973200965766
0.935973200965766
0.935973200965766
)
;

boundaryField
{
    inlet
    {
        type            fixedValue;
        value           uniform 0.935973200965766;
    }
    outlet
    {
        type            fixedValue;
        value           uniform 0;
    }
    left
    {
        type            empty;
    }
    right
    {
        type            empty;
    }
    frontAndBack
    {
        type            empty;
    }
}


// ************************************************************************* //
