/*--------------------------------*- C++ -*----------------------------------*\
| =========                 |                                                 |
| \\      /  F ield         | OpenFOAM: The Open Source CFD Toolbox           |
|  \\    /   O peration     | Version:  v1712                                 |
|   \\  /    A nd           | Web:      www.OpenFOAM.com                      |
|    \\/     M anipulation  |                                                 |
\*---------------------------------------------------------------------------*/
FoamFile
{
    version     2.0;
    format      ascii;
    class       volScalarField;
    location    "0";
    object      rho;
}
// * * * * * * * * * * * * * * * * * * * * * * * * * * * * * * * * * * * * * //

dimensions      [1 -3 0 0 0 0 0];


internalField   nonuniform List<scalar> 
1000
(
2.37037037037037
2.37037037037037
2.37037037037037
2.37037037037037
2.37037037037037
2.37037037037037
2.37037037037037
2.37037037037037
2.37037037037037
2.37037037037037
2.37037037037037
2.37037037037037
2.37037037037037
2.37037037037037
2.37037037037037
2.37037037037037
2.37037037037037
2.37037037037037
2.37037037037037
2.37037037037037
2.37037037037037
2.37037037037037
2.37037037037037
2.37037037037037
2.37037037037037
2.37037037037037
2.37037037037037
2.37037037037037
2.37037037037037
2.37037037037037
2.37037037037037
2.37037037037037
2.37037037037037
2.37037037037037
2.37037037037037
2.37037037037037
2.37037037037037
2.37037037037037
2.37037037037037
2.37037037037037
2.37037037037037
2.37037037037037
2.37037037037037
2.37037037037036
2.37037037037036
2.37037037037036
2.37037037037036
2.37037037037036
2.37037037037036
2.37037037037035
2.37037037037035
2.37037037037035
2.37037037037034
2.37037037037034
2.37037037037033
2.37037037037032
2.37037037037031
2.3703703703703
2.37037037037029
2.37037037037027
2.37037037037026
2.37037037037024
2.37037037037021
2.37037037037019
2.37037037037015
2.37037037037012
2.37037037037007
2.37037037037002
2.37037037036996
2.37037037036989
2.3703703703698
2.3703703703697
2.37037037036959
2.37037037036945
2.37037037036929
2.3703703703691
2.37037037036888
2.37037037036862
2.37037037036831
2.37037037036796
2.37037037036754
2.37037037036705
2.37037037036647
2.37037037036579
2.370370370365
2.37037037036407
2.37037037036297
2.37037037036169
2.37037037036019
2.37037037035842
2.37037037035634
2.37037037035391
2.37037037035105
2.3703703703477
2.37037037034376
2.37037037033915
2.37037037033373
2.37037037032737
2.37037037031991
2.37037037031115
2.37037037030088
2.37037037028882
2.37037037027467
2.37037037025807
2.37037037023858
2.37037037021571
2.37037037018888
2.37037037015738
2.37037037012043
2.37037037007706
2.37037037002617
2.37037036996645
2.37037036989636
2.37037036981412
2.3703703697176
2.37037036960434
2.37037036947142
2.37037036931544
2.3703703691324
2.3703703689176
2.37037036866553
2.37037036836972
2.37037036802258
2.37037036761521
2.37037036713717
2.37037036657617
2.37037036591783
2.37037036514527
2.37037036423866
2.37037036317474
2.37037036192622
2.37037036046106
2.37037035874169
2.37037035672399
2.37037035435619
2.37037035157756
2.3703703483168
2.37037034449026
2.37037033999978
2.37037033473016
2.37037032854619
2.37037032128924
2.37037031277313
2.37037030277938
2.37037029105161
2.37037027728894
2.3703702611383
2.37037024218536
2.37037021994386
2.37037019384323
2.37037016321386
2.37037012726996
2.3703700850894
2.37037003559006
2.37036997750206
2.37036990933516
2.37036982934057
2.37036973546606
2.37036962530332
2.37036949602616
2.37036934431805
2.37036916628697
2.37036895736562
2.37036871219423
2.37036842448305
2.370368086851
2.37036769063632
2.37036722567439
2.37036668003689
2.37036603972591
2.37036528831476
2.37036440652664
2.37036337174013
2.37036215740887
2.37036073238063
2.37035906009823
2.37035709766178
2.37035479472833
2.37035209222061
2.37034892081182
2.37034519914755
2.37034083175947
2.37033570661704
2.37032969225484
2.37032263440171
2.37031435202566
2.37030463269306
2.37029322712377
2.37027984280268
2.37026413648476
2.37024570540215
2.37022407694908
2.37019869658182
2.37016891362579
2.37013396462925
2.37009295384107
2.37004483031872
2.36998836108787
2.36992209967789
2.3698443492429
2.36975311934619
2.36964607533171
2.36952047902868
2.36937311932965
2.36920023094582
2.36899739937167
2.36875944978099
2.36848031722382
2.36815289509626
2.36776885841025
2.36731845789806
2.3667902804488
2.36617097079916
2.3654449087997
2.36459383597524
2.36359642452648
2.36242778143443
2.36105888000557
2.35945591114558
2.35757954702553
2.35538411081976
2.35281664813075
2.34981589894943
2.34631117401013
2.34222114679527
2.33745258296236
2.33189904346637
2.325439617075
2.31793776325861
2.30924037833255
2.29917723652887
2.2875610027584
2.27418806304725
2.25884046749581
2.24128932132314
2.22129998013019
2.19863938924542
2.17308583299214
2.14444120509996
2.11254565650792
2.0772941130457
2.03865369695749
1.99668058108402
1.95153434233464
1.90348758902069
1.85292865747861
1.8003556236276
1.74636079057093
1.69160610299482
1.63679137327438
1.58261845791422
1.52975527140792
1.47880355750171
1.43027364151732
1.38456815286716
1.34197525822315
1.3026706233664
1.26672637515792
1.23412486799434
1.20477503636819
1.17852941262291
1.15520035478949
1.1345745312035
1.11642515700818
1.10052182825264
1.08663804253724
1.07455664256653
1.0640734912873
1.05499970655967
1.04716276872345
1.04040678083251
1.03459211927232
1.02959466886206
1.02530479552204
1.0216261733438
1.01847455230001
1.01577652791397
1.01346835453765
1.01149482879279
1.00980825846309
1.00836752395818
1.00713723373965
1.00608697124118
1.00519062835783
1.00442581914856
1.00377336669717
1.00321685588346
1.00274224496172
1.00233752920184
1.00199245033181
1.00169824606517
1.00144743456095
1.00123362921865
1.00105137973774
1.00089603586191
1.00076363067516
1.00065078072054
1.00055460057197
1.00047262980784
1.00040277061539
1.00034323449931
1.00029249678166
1.00024925776526
1.00021240959259
1.00018100797104
1.00015424805418
1.0001314438712
1.00011201078486
1.00009545053378
1.00008133847936
1.00006931273343
1.00005906488979
1.00005033212355
1.00004289045668
1.00003654901796
1.00003114515058
1.00002654024243
1.00002261617232
1.00001927228129
1.00001642279149
1.0000139946064
1.00001192543627
1.00001016220049
1.00000865966623
1.0000073792882
1.00000628821999
1.00000535847151
1.00000456619105
1.0000038910534
1.00000331573849
1.00000282548704
1.00000240772202
1.00000205172594
1.00000174836593
1.00000148985947
1.00000126957471
1.00000108186037
1.00000092190071
1.00000078559205
1.00000066943744
1.000000570457
1.00000048611143
1.00000041423686
1.00000035298938
1.00000030079772
1.00000025632292
1.00000021842399
1.00000018612865
1.00000015860838
1.00000013515715
1.00000011517332
1.00000009814423
1.000000083633
1.00000007126734
1.00000006073002
1.00000005175071
1.00000004409905
1.00000003757873
1.00000003202248
1.00000002728776
1.0000000232531
1.00000001981498
1.00000001688521
1.00000001438863
1.00000001226118
1.00000001044829
1.00000000890344
1.00000000758702
1.00000000646523
1.0000000055093
1.00000000469472
1.00000000400058
1.00000000340907
1.00000000290502
1.00000000247549
1.00000000210947
1.00000000179757
1.00000000153179
1.00000000130531
1.00000000111231
1.00000000094785
1.0000000008077
1.00000000068828
1.00000000058651
1.00000000049979
1.0000000004259
1.00000000036293
1.00000000030926
1.00000000026354
1.00000000022457
1.00000000019137
1.00000000016307
1.00000000013896
1.00000000011842
1.00000000010091
1.00000000008599
1.00000000007327
1.00000000006244
1.00000000005321
1.00000000004534
1.00000000003864
1.00000000003292
1.00000000002806
1.00000000002391
1.00000000002037
1.00000000001736
1.00000000001479
1.00000000001261
1.00000000001074
1.00000000000916
1.0000000000078
1.00000000000665
1.00000000000566
1.00000000000483
1.00000000000411
1.00000000000351
1.00000000000299
1.00000000000255
1.00000000000217
1.00000000000185
1.00000000000157
1.00000000000134
1.00000000000115
1.00000000000098
1.00000000000083
1.00000000000071
1.0000000000006
1.00000000000051
1.00000000000044
1.00000000000037
1.00000000000032
1.00000000000027
1.00000000000023
1.0000000000002
1.00000000000017
1.00000000000014
1.00000000000012
1.0000000000001
1.00000000000009
1.00000000000008
1.00000000000006
1.00000000000005
1.00000000000005
1.00000000000004
1.00000000000003
1.00000000000003
1.00000000000003
1.00000000000002
1.00000000000002
1.00000000000002
1.00000000000001
1.00000000000001
1.00000000000001
1.00000000000001
1.00000000000001
1.00000000000001
1.00000000000001
1
1
1
1
1
1
1
1
1
1
1
1
1
1
1
1
1
1
1
1
1
1
1
1
1
1
1
1
1
1
1
1
1
1
1
1
1
1
1
1
1
1
1
1
1
1
1
1
1
1
1
1
1
1
1
1
1
1
1
1
1
1
1
1
1
1
1
1
1
1
1
1
1
1
1
1
1
1
1
1
1
1
1
1
1
1
1
1
1
1
1
1
1
1
1
1
1
1
1
1
1
1
1
1
1
1
1
1
1
1
1
1
1
1
1
1
1
1
1
1
1
1
1
1
1
1
1
1
1
1
1
1
1
1
1
1
1
1
1
1
1
1
1
1
1
1
1
1
1
1
1
1
1
1
1
1
1
1
1
1
1
1
1
1
1
1
1
1
1
1
1
1
1
1
1
1
1
1
1
1
1
1
1
1
1
1
1
1
1
1
1
1
1
1
1
1
1
1
1
1
1
1
1
1
1
1
1
1
1
1
1
1
1
1
1
1
1
1
1
1
1
1
1
1
1
1
1
1
1
1
1
1
1
1
1
1
1
1
1
1
1
1
1
1
1
1
1
1
1
1
1
1
1
1
1
1
1
1
1
1
1
1
1
1
1
1
1
1
1
1
1
1
1
1
1
1
1
1
1
1
1
1
1
1
1
1
1
1
1
1
1
1
1
1
1
1
1
1
1
1
1
1
1
1
1
1
1
1
1
1
1
1
1
1
1
1
1
1
1
1
1
1
1
1
1
1
1
1
1
1
1
1
1
1
1
1
1
1
1
1
1
1
1
1
1
1
1
1
1
1
1
1
1
1
1
1
1
1
1
1
1
1
1
1
1
1
1
1
1
1
1
1
1
1
1
1
1
1
1
1
1
1
1
1
1
1
1
1
1
1
1
1
1
1
1
1
1
1
1
1
1
1
1
1
1
1
1
1
1
1
1
1
1
1
1
1
1
1
1
1
1
1
1
1
1
1
1
1
1
1
1
1
1
1
1
1
1
1
1
1
1
1
1
1
1
1
1
1
1
1
1
1
1
1
1
1
1
1
1
1
1
1
1
1
1
1
1
1
1
1
1
1
1
1
1
1
1
1
1
1
1
1
1
1
1
1
1
1
1
1
1
1
1
1
1
1
1
1
1
1
1
1
1
1
1
1
1
1
1
1
1
1
1
1
1
1
1
1
1
1
1
1
1
1
1
1
1
1
1
1
1
1
1
1
1
1
1
1
1
1
1
1
1
)
;

boundaryField
{
    inlet
    {
        type            fixedValue;
        value           uniform 1;
    }
    outlet
    {
        type            calculated;
        value           uniform 2.37037037037037;
    }
    left
    {
        type            empty;
    }
    right
    {
        type            empty;
    }
    frontAndBack
    {
        type            empty;
    }
}


// ************************************************************************* //
