/*--------------------------------*- C++ -*----------------------------------*\
| =========                 |                                                 |
| \\      /  F ield         | OpenFOAM: The Open Source CFD Toolbox           |
|  \\    /   O peration     | Version:  v1712                                 |
|   \\  /    A nd           | Web:      www.OpenFOAM.com                      |
|    \\/     M anipulation  |                                                 |
\*---------------------------------------------------------------------------*/
FoamFile
{
    version     2.0;
    format      ascii;
    class       volScalarField;
    location    "0";
    object      T;
}
// * * * * * * * * * * * * * * * * * * * * * * * * * * * * * * * * * * * * * //

dimensions      [0 0 0 1 0 0 0];


internalField   nonuniform List<scalar> 
1000
(
1.4
1.4
1.4
1.4
1.4
1.4
1.4
1.4
1.4
1.4
1.4
1.4
1.4
1.4
1.4
1.4
1.4
1.4
1.4
1.4
1.4
1.4
1.4
1.4
1.4
1.4
1.4
1.4
1.4
1.4
1.4
1.4
1.4
1.4
1.4
1.4
1.4
1.4
1.4
1.4
1.4
1.4
1.4
1.4
1.4
1.4
1.4
1.4
1.4
1.4
1.4
1.4
1.39999999999999
1.39999999999999
1.39999999999999
1.39999999999999
1.39999999999999
1.39999999999999
1.39999999999998
1.39999999999998
1.39999999999998
1.39999999999997
1.39999999999997
1.39999999999996
1.39999999999996
1.39999999999995
1.39999999999994
1.39999999999993
1.39999999999992
1.3999999999999
1.39999999999989
1.39999999999987
1.39999999999985
1.39999999999982
1.39999999999979
1.39999999999975
1.39999999999971
1.39999999999965
1.3999999999996
1.39999999999952
1.39999999999944
1.39999999999935
1.39999999999923
1.3999999999991
1.39999999999894
1.39999999999876
1.39999999999854
1.39999999999829
1.39999999999799
1.39999999999765
1.39999999999724
1.39999999999676
1.3999999999962
1.39999999999554
1.39999999999476
1.39999999999385
1.39999999999279
1.39999999999153
1.39999999999007
1.39999999998834
1.39999999998632
1.39999999998394
1.39999999998116
1.39999999997789
1.39999999997405
1.39999999996955
1.39999999996427
1.39999999995807
1.39999999995079
1.39999999994226
1.39999999993224
1.39999999992048
1.39999999990668
1.39999999989049
1.39999999987149
1.39999999984919
1.39999999982302
1.39999999979231
1.39999999975627
1.39999999971399
1.39999999966436
1.39999999960612
1.39999999953778
1.39999999945758
1.39999999936346
1.39999999925302
1.39999999912341
1.39999999897131
1.39999999879282
1.39999999858336
1.39999999833756
1.3999999980491
1.3999999977106
1.39999999731337
1.39999999684721
1.39999999630016
1.3999999956582
1.39999999490485
1.39999999402079
1.39999999298333
1.39999999176586
1.39999999033715
1.39999998866054
1.39999998669302
1.39999998438412
1.39999998167459
1.39999997849494
1.39999997476357
1.39999997038478
1.39999996524622
1.39999995921606
1.3999999521396
1.39999994383531
1.39999993409012
1.39999992265405
1.39999990923369
1.39999989348475
1.3999998750032
1.39999985331491
1.39999982786346
1.39999979799592
1.39999976294604
1.39999972181463
1.3999996735465
1.39999961690333
1.39999955043198
1.39999947242716
1.3999993808877
1.39999927346522
1.39999914740385
1.39999899946959
1.39999882586728
1.39999862214332
1.39999838307134
1.3999981025182
1.39999777328663
1.39999738693062
1.39999693353876
1.39999640148002
1.39999577710542
1.39999504439797
1.39999418456182
1.3999931755403
1.39999199145019
1.39999060191808
1.3999889713015
1.39998705777514
1.39998481225856
1.39998217715822
1.39997908489131
1.3999754561541
1.39997119789014
1.3999662009069
1.39996033707975
1.39995345607235
1.39994538148998
1.39993590636809
1.39992478788196
1.39991174114352
1.39989643192904
1.39987846815493
1.39985738988787
1.39983265764043
1.39980363866138
1.39976959088261
1.39972964412921
1.39968277813603
1.39962779684183
1.39956329834934
1.39948763984649
1.39939889667952
1.39929481465178
1.39917275449489
1.39902962732071
1.39886181971718
1.39866510700273
1.39843455300976
1.39816439463841
1.39784790932506
1.39747726352781
1.397043340378
1.39653554482752
1.39594158499841
1.39524722909552
1.39443603828097
1.39348907746464
1.39238460820305
1.39109777101281
1.38960026861134
1.38786006711739
1.38584113926776
1.38350328233839
1.38080205362117
1.37768887761717
1.37411139069339
1.37001409925607
1.36533943406883
1.3600292827132
1.35402706990635
1.34728042644791
1.33974443734237
1.33138538551309
1.32218481110082
1.31214359591162
1.30128567486616
1.28966089620736
1.27734652921571
1.26444697875184
1.25109142328774
1.23742933740363
1.22362415401318
1.20984560697999
1.19626150594614
1.18302978089713
1.17029157462993
1.15816597527226
1.14674671720933
1.13610089902013
1.12626952659381
1.1172695236365
1.10909677118639
1.10172973333674
1.09513327726867
1.0892623779201
1.08406549006544
1.07948745798498
1.07547190627089
1.07196311091904
1.06890738769243
1.06625405703619
1.06395605481543
1.06197025926002
1.06025759982999
1.0587830057851
1.05751524293397
1.05642667763758
1.0554929984386
1.05469291809658
1.05400787247799
1.0534217276636
1.05292050267698
1.05249211224985
1.05212613185082
1.0518135856523
1.05154675705232
1.05131902068297
1.05112469442665
1.0509589097482
1.05081749857554
1.05069689497799
1.0505940499686
1.05050635786823
1.05043159279999
1.05036785402023
1.0503135189289
1.05026720273311
1.0502277238599
1.0501940743267
1.05016539437871
1.05014095079347
1.05012011833289
1.05010236389386
1.05008723297041
1.05007433809428
1.0500633489678
1.05005398404341
1.05004600333936
1.05003920231105
1.05003340662395
1.05002846769595
1.05002425889623
1.05002067230443
1.0500176159477
1.05001501144522
1.05001279200044
1.05001090068954
1.05000928900267
1.05000791560064
1.05000674525512
1.05000574794555
1.05000489808939
1.0500041738861
1.05000355675812
1.05000303087443
1.05000258274452
1.05000220087238
1.05000187546168
1.05000159816444
1.05000136186693
1.05000116050719
1.05000098891953
1.05000084270203
1.05000071810359
1.05000061192772
1.05000052145056
1.05000044435096
1.05000037865099
1.05000032266515
1.05000027495714
1.05000023430305
1.05000019965991
1.05000017013897
1.05000014498288
1.05000012354627
1.05000010527919
1.05000008971301
1.05000007644839
1.05000006514502
1.05000005551293
1.050000047305
1.05000004031066
1.05000003435048
1.05000002927155
1.05000002494357
1.05000002125551
1.05000001811275
1.05000001543467
1.05000001315256
1.05000001120787
1.05000000955072
1.05000000813858
1.05000000693524
1.05000000590982
1.05000000503602
1.05000000429141
1.0500000036569
1.05000000311621
1.05000000265546
1.05000000226283
1.05000000192826
1.05000000164315
1.0500000014002
1.05000000119317
1.05000000101676
1.05000000086642
1.05000000073832
1.05000000062915
1.05000000053613
1.05000000045686
1.05000000038931
1.05000000033175
1.0500000002827
1.0500000002409
1.05000000020528
1.05000000017493
1.05000000014906
1.05000000012702
1.05000000010824
1.05000000009224
1.0500000000786
1.05000000006698
1.05000000005708
1.05000000004864
1.05000000004145
1.05000000003532
1.0500000000301
1.05000000002565
1.05000000002185
1.05000000001862
1.05000000001587
1.05000000001352
1.05000000001152
1.05000000000982
1.05000000000837
1.05000000000713
1.05000000000608
1.05000000000518
1.05000000000441
1.05000000000376
1.0500000000032
1.05000000000273
1.05000000000233
1.05000000000198
1.05000000000169
1.05000000000144
1.05000000000123
1.05000000000105
1.05000000000089
1.05000000000076
1.05000000000065
1.05000000000055
1.05000000000047
1.0500000000004
1.05000000000034
1.05000000000029
1.05000000000025
1.05000000000021
1.05000000000018
1.05000000000015
1.05000000000013
1.05000000000011
1.0500000000001
1.05000000000008
1.05000000000007
1.05000000000006
1.05000000000005
1.05000000000004
1.05000000000004
1.05000000000003
1.05000000000003
1.05000000000002
1.05000000000002
1.05000000000002
1.05000000000001
1.05000000000001
1.05000000000001
1.05000000000001
1.05000000000001
1.05000000000001
1.05000000000001
1.05
1.05
1.05
1.05
1.05
1.05
1.05
1.05
1.05
1.05
1.05
1.05
1.05
1.05
1.05
1.05
1.05
1.05
1.05
1.05
1.05
1.05
1.05
1.05
1.05
1.05
1.05
1.05
1.05
1.05
1.05
1.05
1.05
1.05
1.05
1.05
1.05
1.05
1.05
1.05
1.05
1.05
1.05
1.05
1.05
1.05
1.05
1.05
1.05
1.05
1.05
1.05
1.05
1.05
1.05
1.05
1.05
1.05
1.05
1.05
1.05
1.05
1.05
1.05
1.05
1.05
1.05
1.05
1.05
1.05
1.05
1.05
1.05
1.05
1.05
1.05
1.05
1.05
1.05
1.05
1.05
1.05
1.05
1.05
1.05
1.05
1.05
1.05
1.05
1.05
1.05
1.05
1.05
1.05
1.05
1.05
1.05
1.05
1.05
1.05
1.05
1.05
1.05
1.05
1.05
1.05
1.05
1.05
1.05
1.05
1.05
1.05
1.05
1.05
1.05
1.05
1.05
1.05
1.05
1.05
1.05
1.05
1.05
1.05
1.05
1.05
1.05
1.05
1.05
1.05
1.05
1.05
1.05
1.05
1.05
1.05
1.05
1.05
1.05
1.05
1.05
1.05
1.05
1.05
1.05
1.05
1.05
1.05
1.05
1.05
1.05
1.05
1.05
1.05
1.05
1.05
1.05
1.05
1.05
1.05
1.05
1.05
1.05
1.05
1.05
1.05
1.05
1.05
1.05
1.05
1.05
1.05
1.05
1.05
1.05
1.05
1.05
1.05
1.05
1.05
1.05
1.05
1.05
1.05
1.05
1.05
1.05
1.05
1.05
1.05
1.05
1.05
1.05
1.05
1.05
1.05
1.05
1.05
1.05
1.05
1.05
1.05
1.05
1.05
1.05
1.05
1.05
1.05
1.05
1.05
1.05
1.05
1.05
1.05
1.05
1.05
1.05
1.05
1.05
1.05
1.05
1.05
1.05
1.05
1.05
1.05
1.05
1.05
1.05
1.05
1.05
1.05
1.05
1.05
1.05
1.05
1.05
1.05
1.05
1.05
1.05
1.05
1.05
1.05
1.05
1.05
1.05
1.05
1.05
1.05
1.05
1.05
1.05
1.05
1.05
1.05
1.05
1.05
1.05
1.05
1.05
1.05
1.05
1.05
1.05
1.05
1.05
1.05
1.05
1.05
1.05
1.05
1.05
1.05
1.05
1.05
1.05
1.05
1.05
1.05
1.05
1.05
1.05
1.05
1.05
1.05
1.05
1.05
1.05
1.05
1.05
1.05
1.05
1.05
1.05
1.05
1.05
1.05
1.05
1.05
1.05
1.05
1.05
1.05
1.05
1.05
1.05
1.05
1.05
1.05
1.05
1.05
1.05
1.05
1.05
1.05
1.05
1.05
1.05
1.05
1.05
1.05
1.05
1.05
1.05
1.05
1.05
1.05
1.05
1.05
1.05
1.05
1.05
1.05
1.05
1.05
1.05
1.05
1.05
1.05
1.05
1.05
1.05
1.05
1.05
1.05
1.05
1.05
1.05
1.05
1.05
1.05
1.05
1.05
1.05
1.05
1.05
1.05
1.05
1.05
1.05
1.05
1.05
1.05
1.05
1.05
1.05
1.05
1.05
1.05
1.05
1.05
1.05
1.05
1.05
1.05
1.05
1.05
1.05
1.05
1.05
1.05
1.05
1.05
1.05
1.05
1.05
1.05
1.05
1.05
1.05
1.05
1.05
1.05
1.05
1.05
1.05
1.05
1.05
1.05
1.05
1.05
1.05
1.05
1.05
1.05
1.05
1.05
1.05
1.05
1.05
1.05
1.05
1.05
1.05
1.05
1.05
1.05
1.05
1.05
1.05
1.05
1.05
1.05
1.05
1.05
1.05
1.05
1.05
1.05
1.05
1.05
1.05
1.05
1.05
1.05
1.05
1.05
1.05
1.05
1.05
1.05
1.05
1.05
1.05
1.05
1.05
1.05
1.05
1.05
1.05
1.05
1.05
1.05
1.05
1.05
1.05
1.05
1.05
1.05
1.05
1.05
1.05
1.05
1.05
1.05
1.05
1.05
1.05
1.05
1.05
1.05
1.05
1.05
1.05
1.05
1.05
1.05
1.05
1.05
1.05
1.05
1.05
1.05
1.05
1.05
1.05
1.05
1.05
1.05
1.05
1.05
1.05
1.05
1.05
1.05
1.05
1.05
1.05
1.05
1.05
1.05
1.05
1.05
1.05
1.05
1.05
1.05
1.05
1.05
1.05
1.05
1.05
1.05
1.05
1.05
1.05
1.05
1.05
1.05
1.05
1.05
1.05
1.05
1.05
1.05
1.05
1.05
1.05
1.05
1.05
1.05
1.05
1.05
1.05
1.05
1.05
1.05
1.05
1.05
1.05
1.05
1.05
1.05
1.05
1.05
1.05
1.05
1.05
1.05
)
;

boundaryField
{
    inlet
    {
        type            fixedValue;
        value           uniform 1.05;
    }
    outlet
    {
        type            zeroGradient;
    }
    left
    {
        type            empty;
    }
    right
    {
        type            empty;
    }
    frontAndBack
    {
        type            empty;
    }
}


// ************************************************************************* //
