/*--------------------------------*- C++ -*----------------------------------*\
| =========                 |                                                 |
| \\      /  F ield         | OpenFOAM: The Open Source CFD Toolbox           |
|  \\    /   O peration     | Version:  v1712                                 |
|   \\  /    A nd           | Web:      www.OpenFOAM.com                      |
|    \\/     M anipulation  |                                                 |
\*---------------------------------------------------------------------------*/
FoamFile
{
    version     2.0;
    format      ascii;
    class       volVectorField;
    location    "0";
    object      U;
}
// * * * * * * * * * * * * * * * * * * * * * * * * * * * * * * * * * * * * * //

dimensions      [0 1 -1 0 0 0 0];


internalField   nonuniform List<vector> 
1000
(
(0 -0.166509148108729 0)
(0 -0.166509148108729 0)
(0 -0.166509148108729 0)
(0 -0.166509148108729 0)
(0 -0.166509148108729 0)
(0 -0.166509148108729 0)
(0 -0.166509148108729 0)
(0 -0.166509148108729 0)
(0 -0.166509148108729 0)
(0 -0.166509148108729 0)
(0 -0.166509148108729 0)
(0 -0.166509148108729 0)
(0 -0.166509148108729 0)
(0 -0.166509148108729 0)
(0 -0.166509148108729 0)
(0 -0.166509148108729 0)
(0 -0.166509148108729 0)
(0 -0.166509148108729 0)
(0 -0.166509148108729 0)
(0 -0.166509148108729 0)
(0 -0.166509148108729 0)
(0 -0.166509148108729 0)
(0 -0.166509148108729 0)
(0 -0.166509148108729 0)
(0 -0.166509148108729 0)
(0 -0.166509148108729 0)
(0 -0.166509148108729 0)
(0 -0.166509148108729 0)
(0 -0.166509148108729 0)
(0 -0.166509148108729 0)
(0 -0.166509148108729 0)
(0 -0.166509148108729 0)
(0 -0.166509148108729 0)
(0 -0.166509148108729 0)
(0 -0.166509148108729 0)
(0 -0.166509148108729 0)
(0 -0.166509148108729 0)
(0 -0.166509148108729 0)
(0 -0.166509148108729 0)
(0 -0.166509148108729 0)
(0 -0.166509148108729 0)
(0 -0.166509148108729 0)
(0 -0.166509148108729 0)
(0 -0.166509148108729 0)
(0 -0.166509148108729 0)
(0 -0.166509148108729 0)
(0 -0.166509148108729 0)
(0 -0.16650914810873 0)
(0 -0.16650914810873 0)
(0 -0.16650914810873 0)
(0 -0.16650914810873 0)
(0 -0.16650914810873 0)
(0 -0.166509148108731 0)
(0 -0.166509148108731 0)
(0 -0.166509148108732 0)
(0 -0.166509148108732 0)
(0 -0.166509148108733 0)
(0 -0.166509148108733 0)
(0 -0.166509148108734 0)
(0 -0.166509148108735 0)
(0 -0.166509148108737 0)
(0 -0.166509148108738 0)
(0 -0.16650914810874 0)
(0 -0.166509148108742 0)
(0 -0.166509148108744 0)
(0 -0.166509148108747 0)
(0 -0.16650914810875 0)
(0 -0.166509148108753 0)
(0 -0.166509148108758 0)
(0 -0.166509148108763 0)
(0 -0.166509148108769 0)
(0 -0.166509148108776 0)
(0 -0.166509148108784 0)
(0 -0.166509148108793 0)
(0 -0.166509148108805 0)
(0 -0.166509148108818 0)
(0 -0.166509148108833 0)
(0 -0.166509148108852 0)
(0 -0.166509148108873 0)
(0 -0.166509148108898 0)
(0 -0.166509148108928 0)
(0 -0.166509148108962 0)
(0 -0.166509148109003 0)
(0 -0.16650914810905 0)
(0 -0.166509148109106 0)
(0 -0.166509148109171 0)
(0 -0.166509148109248 0)
(0 -0.166509148109338 0)
(0 -0.166509148109444 0)
(0 -0.166509148109568 0)
(0 -0.166509148109714 0)
(0 -0.166509148109885 0)
(0 -0.166509148110086 0)
(0 -0.166509148110321 0)
(0 -0.166509148110598 0)
(0 -0.166509148110922 0)
(0 -0.166509148111303 0)
(0 -0.166509148111749 0)
(0 -0.166509148112273 0)
(0 -0.166509148112888 0)
(0 -0.16650914811361 0)
(0 -0.166509148114457 0)
(0 -0.166509148115451 0)
(0 -0.166509148116618 0)
(0 -0.166509148117986 0)
(0 -0.166509148119593 0)
(0 -0.166509148121478 0)
(0 -0.16650914812369 0)
(0 -0.166509148126286 0)
(0 -0.166509148129332 0)
(0 -0.166509148132907 0)
(0 -0.166509148137103 0)
(0 -0.166509148142026 0)
(0 -0.166509148147803 0)
(0 -0.166509148154583 0)
(0 -0.16650914816254 0)
(0 -0.166509148171876 0)
(0 -0.166509148182833 0)
(0 -0.166509148195691 0)
(0 -0.16650914821078 0)
(0 -0.166509148228487 0)
(0 -0.166509148249267 0)
(0 -0.166509148273652 0)
(0 -0.166509148302268 0)
(0 -0.166509148335849 0)
(0 -0.166509148375256 0)
(0 -0.166509148421502 0)
(0 -0.166509148475772 0)
(0 -0.166509148539457 0)
(0 -0.166509148614193 0)
(0 -0.166509148701897 0)
(0 -0.166509148804818 0)
(0 -0.166509148925598 0)
(0 -0.166509149067333 0)
(0 -0.166509149233662 0)
(0 -0.16650914942885 0)
(0 -0.166509149657905 0)
(0 -0.166509149926704 0)
(0 -0.166509150242142 0)
(0 -0.166509150612313 0)
(0 -0.166509151046712 0)
(0 -0.166509151556484 0)
(0 -0.166509152154707 0)
(0 -0.166509152856729 0)
(0 -0.166509153680558 0)
(0 -0.166509154647331 0)
(0 -0.16650915578185 0)
(0 -0.16650915711322 0)
(0 -0.166509158675597 0)
(0 -0.166509160509063 0)
(0 -0.166509162660656 0)
(0 -0.166509165185574 0)
(0 -0.166509168148591 0)
(0 -0.166509171625725 0)
(0 -0.166509175706179 0)
(0 -0.166509180494636 0)
(0 -0.166509186113942 0)
(0 -0.166509192708259 0)
(0 -0.16650920044676 0)
(0 -0.166509209527975 0)
(0 -0.166509220184879 0)
(0 -0.166509232690871 0)
(0 -0.166509247366786 0)
(0 -0.166509264589129 0)
(0 -0.166509284799733 0)
(0 -0.166509308517092 0)
(0 -0.166509336349665 0)
(0 -0.166509369011483 0)
(0 -0.166509407340471 0)
(0 -0.166509452319938 0)
(0 -0.16650950510381 0)
(0 -0.166509567046229 0)
(0 -0.166509639736288 0)
(0 -0.166509725038806 0)
(0 -0.16650982514216 0)
(0 -0.166509942614426 0)
(0 -0.166510080469259 0)
(0 -0.166510242243199 0)
(0 -0.166510432086394 0)
(0 -0.166510654869059 0)
(0 -0.166510916306403 0)
(0 -0.166511223105232 0)
(0 -0.166511583135979 0)
(0 -0.166512005634577 0)
(0 -0.166512501439351 0)
(0 -0.166513083268995 0)
(0 -0.166513766048759 0)
(0 -0.166514567293211 0)
(0 -0.166515507555367 0)
(0 -0.166516610953701 0)
(0 -0.166517905790521 0)
(0 -0.166519425277537 0)
(0 -0.166521208387188 0)
(0 -0.166523300851484 0)
(0 -0.166525756333896 0)
(0 -0.166528637804223 0)
(0 -0.166532019151497 0)
(0 -0.16653598707606 0)
(0 -0.166540643308987 0)
(0 -0.166546107215283 0)
(0 -0.166552518846957 0)
(0 -0.166560042523351 0)
(0 -0.16656887102927 0)
(0 -0.166579230536813 0)
(0 -0.166591386374708 0)
(0 -0.166605649789749 0)
(0 -0.166622385869124 0)
(0 -0.166642022820426 0)
(0 -0.166665062838563 0)
(0 -0.166692094826156 0)
(0 -0.16672380927701 0)
(0 -0.166761015681415 0)
(0 -0.166804662868144 0)
(0 -0.166855862761488 0)
(0 -0.166915918103017 0)
(0 -0.166986354767233 0)
(0 -0.167068959387573 0)
(0 -0.167165823103747 0)
(0 -0.167279392341309 0)
(0 -0.167412527636875 0)
(0 -0.167568571622561 0)
(0 -0.167751427373702 0)
(0 -0.167965648393562 0)
(0 -0.168216541541663 0)
(0 -0.168510284185835 0)
(0 -0.168854056740837 0)
(0 -0.169256191505546 0)
(0 -0.169726338269317 0)
(0 -0.170275646451215 0)
(0 -0.170916962467778 0)
(0 -0.17166503947665 0)
(0 -0.172536754471954 0)
(0 -0.173551324750024 0)
(0 -0.174730511849782 0)
(0 -0.176098796044563 0)
(0 -0.177683498223149 0)
(0 -0.179514818575137 0)
(0 -0.181625753148044 0)
(0 -0.184051840700452 0)
(0 -0.186830684514042 0)
(0 -0.190001188851325 0)
(0 -0.193602450313939 0)
(0 -0.197672254045893 0)
(0 -0.202245147579813 0)
(0 -0.207350104801892 0)
(0 -0.21300785083092 0)
(0 -0.219227993565666 0)
(0 -0.22600619139159 0)
(0 -0.233321664170982 0)
(0 -0.241135405230646 0)
(0 -0.249389452712889 0)
(0 -0.258007511691258 0)
(0 -0.266897079784774 0)
(0 -0.275953034171721 0)
(0 -0.285062421994341 0)
(0 -0.294110005869356 0)
(0 -0.302983996102236 0)
(0 -0.31158137922512 0)
(0 -0.319812331238392 0)
(0 -0.327603360924819 0)
(0 -0.334899024873831 0)
(0 -0.341662248835153 0)
(0 -0.347873445258706 0)
(0 -0.353528714929925 0)
(0 -0.358637458104043 0)
(0 -0.363219706675247 0)
(0 -0.367303439798062 0)
(0 -0.370922078507054 0)
(0 -0.374112285167937 0)
(0 -0.376912131390699 0)
(0 -0.379359648883414 0)
(0 -0.381491743190686 0)
(0 -0.383343429224206 0)
(0 -0.384947337412563 0)
(0 -0.386333437191335 0)
(0 -0.38752892763125 0)
(0 -0.388558250979757 0)
(0 -0.389443192089209 0)
(0 -0.39020303400226 0)
(0 -0.390854746695427 0)
(0 -0.391413191812503 0)
(0 -0.391891331042352 0)
(0 -0.392300429639424 0)
(0 -0.392650249552508 0)
(0 -0.392949228851082 0)
(0 -0.393204645757071 0)
(0 -0.393422766730697 0)
(0 -0.393608978833449 0)
(0 -0.39376790709097 0)
(0 -0.393903517877644 0)
(0 -0.394019209500407 0)
(0 -0.394117891215706 0)
(0 -0.394202051903264 0)
(0 -0.394273819567528 0)
(0 -0.394335012759503 0)
(0 -0.394387184920248 0)
(0 -0.394431662550983 0)
(0 -0.39446957801895 0)
(0 -0.394501897716432 0)
(0 -0.394529446204704 0)
(0 -0.394552926896229 0)
(0 -0.394572939757531 0)
(0 -0.394589996451831 0)
(0 -0.394604533284394 0)
(0 -0.394616922264104 0)
(0 -0.39462748055154 0)
(0 -0.394636478526088 0)
(0 -0.394644146671931 0)
(0 -0.394650681454339 0)
(0 -0.39465625033327 0)
(0 -0.394660996040128 0)
(0 -0.394665040225436 0)
(0 -0.394668486569515 0)
(0 -0.394671423434952 0)
(0 -0.394673926128128 0)
(0 -0.394676058827258 0)
(0 -0.394677876226024 0)
(0 -0.394679424934657 0)
(0 -0.39468074467421 0)
(0 -0.394681869294499 0)
(0 -0.394682827641716 0)
(0 -0.394683644297896 0)
(0 -0.394684340211145 0)
(0 -0.394684933232753 0)
(0 -0.394685438574942 0)
(0 -0.394685869200971 0)
(0 -0.39468623615759 0)
(0 -0.394686548858354 0)
(0 -0.394686815325066 0)
(0 -0.394687042393525 0)
(0 -0.394687235888872 0)
(0 -0.394687400774994 0)
(0 -0.394687541281875 0)
(0 -0.394687661014082 0)
(0 -0.39468776304324 0)
(0 -0.394687849986827 0)
(0 -0.39468792407532 0)
(0 -0.394687987209407 0)
(0 -0.394688041008756 0)
(0 -0.394688086853558 0)
(0 -0.394688125919936 0)
(0 -0.394688159210118 0)
(0 -0.394688187578148 0)
(0 -0.394688211751795 0)
(0 -0.394688232351222 0)
(0 -0.394688249904898 0)
(0 -0.394688264863157 0)
(0 -0.394688277609745 0)
(0 -0.394688288471673 0)
(0 -0.394688297727598 0)
(0 -0.394688305614978 0)
(0 -0.39468831233616 0)
(0 -0.394688318063574 0)
(0 -0.394688322944154 0)
(0 -0.39468832710311 0)
(0 -0.394688330647139 0)
(0 -0.394688333667161 0)
(0 -0.394688336240655 0)
(0 -0.394688338433641 0)
(0 -0.394688340302381 0)
(0 -0.394688341894816 0)
(0 -0.3946883432518 0)
(0 -0.394688344408145 0)
(0 -0.394688345393517 0)
(0 -0.394688346233197 0)
(0 -0.394688346948723 0)
(0 -0.394688347558456 0)
(0 -0.394688348078035 0)
(0 -0.394688348520792 0)
(0 -0.394688348898084 0)
(0 -0.394688349219591 0)
(0 -0.394688349493561 0)
(0 -0.394688349727023 0)
(0 -0.394688349925966 0)
(0 -0.394688350095495 0)
(0 -0.394688350239957 0)
(0 -0.39468835036306 0)
(0 -0.394688350467961 0)
(0 -0.394688350557352 0)
(0 -0.394688350633526 0)
(0 -0.394688350698437 0)
(0 -0.394688350753751 0)
(0 -0.394688350800886 0)
(0 -0.394688350841052 0)
(0 -0.394688350875279 0)
(0 -0.394688350904445 0)
(0 -0.3946883509293 0)
(0 -0.394688350950479 0)
(0 -0.394688350968527 0)
(0 -0.394688350983906 0)
(0 -0.394688350997012 0)
(0 -0.394688351008179 0)
(0 -0.394688351017695 0)
(0 -0.394688351025805 0)
(0 -0.394688351032715 0)
(0 -0.394688351038604 0)
(0 -0.394688351043622 0)
(0 -0.394688351047898 0)
(0 -0.394688351051542 0)
(0 -0.394688351054647 0)
(0 -0.394688351057292 0)
(0 -0.394688351059547 0)
(0 -0.394688351061468 0)
(0 -0.394688351063106 0)
(0 -0.394688351064501 0)
(0 -0.39468835106569 0)
(0 -0.394688351066703 0)
(0 -0.394688351067566 0)
(0 -0.394688351068302 0)
(0 -0.394688351068928 0)
(0 -0.394688351069463 0)
(0 -0.394688351069918 0)
(0 -0.394688351070306 0)
(0 -0.394688351070637 0)
(0 -0.394688351070918 0)
(0 -0.394688351071158 0)
(0 -0.394688351071363 0)
(0 -0.394688351071537 0)
(0 -0.394688351071686 0)
(0 -0.394688351071812 0)
(0 -0.394688351071921 0)
(0 -0.394688351072012 0)
(0 -0.39468835107209 0)
(0 -0.394688351072157 0)
(0 -0.394688351072214 0)
(0 -0.394688351072262 0)
(0 -0.394688351072304 0)
(0 -0.394688351072339 0)
(0 -0.394688351072369 0)
(0 -0.394688351072395 0)
(0 -0.394688351072416 0)
(0 -0.394688351072435 0)
(0 -0.39468835107245 0)
(0 -0.394688351072464 0)
(0 -0.394688351072475 0)
(0 -0.394688351072485 0)
(0 -0.394688351072494 0)
(0 -0.394688351072501 0)
(0 -0.394688351072507 0)
(0 -0.394688351072512 0)
(0 -0.394688351072516 0)
(0 -0.394688351072521 0)
(0 -0.394688351072524 0)
(0 -0.394688351072526 0)
(0 -0.394688351072529 0)
(0 -0.394688351072531 0)
(0 -0.394688351072532 0)
(0 -0.394688351072534 0)
(0 -0.394688351072534 0)
(0 -0.394688351072536 0)
(0 -0.394688351072536 0)
(0 -0.394688351072537 0)
(0 -0.394688351072538 0)
(0 -0.394688351072539 0)
(0 -0.394688351072539 0)
(0 -0.394688351072539 0)
(0 -0.39468835107254 0)
(0 -0.39468835107254 0)
(0 -0.39468835107254 0)
(0 -0.394688351072541 0)
(0 -0.394688351072541 0)
(0 -0.394688351072541 0)
(0 -0.394688351072541 0)
(0 -0.394688351072541 0)
(0 -0.394688351072541 0)
(0 -0.394688351072541 0)
(0 -0.394688351072541 0)
(0 -0.394688351072541 0)
(0 -0.394688351072541 0)
(0 -0.394688351072541 0)
(0 -0.394688351072542 0)
(0 -0.394688351072541 0)
(0 -0.394688351072542 0)
(0 -0.394688351072541 0)
(0 -0.394688351072542 0)
(0 -0.394688351072541 0)
(0 -0.394688351072542 0)
(0 -0.394688351072541 0)
(0 -0.394688351072542 0)
(0 -0.394688351072541 0)
(0 -0.394688351072542 0)
(0 -0.394688351072541 0)
(0 -0.394688351072542 0)
(0 -0.394688351072541 0)
(0 -0.394688351072542 0)
(0 -0.394688351072541 0)
(0 -0.394688351072542 0)
(0 -0.394688351072541 0)
(0 -0.394688351072542 0)
(0 -0.394688351072541 0)
(0 -0.394688351072542 0)
(0 -0.394688351072541 0)
(0 -0.394688351072542 0)
(0 -0.394688351072541 0)
(0 -0.394688351072542 0)
(0 -0.394688351072541 0)
(0 -0.394688351072542 0)
(0 -0.394688351072541 0)
(0 -0.394688351072542 0)
(0 -0.394688351072541 0)
(0 -0.394688351072542 0)
(0 -0.394688351072541 0)
(0 -0.394688351072542 0)
(0 -0.394688351072541 0)
(0 -0.394688351072542 0)
(0 -0.394688351072541 0)
(0 -0.394688351072542 0)
(0 -0.394688351072541 0)
(0 -0.394688351072542 0)
(0 -0.394688351072541 0)
(0 -0.394688351072542 0)
(0 -0.394688351072541 0)
(0 -0.394688351072542 0)
(0 -0.394688351072541 0)
(0 -0.394688351072542 0)
(0 -0.394688351072541 0)
(0 -0.394688351072542 0)
(0 -0.394688351072541 0)
(0 -0.394688351072542 0)
(0 -0.394688351072541 0)
(0 -0.394688351072542 0)
(0 -0.394688351072541 0)
(0 -0.394688351072542 0)
(0 -0.394688351072541 0)
(0 -0.394688351072542 0)
(0 -0.394688351072541 0)
(0 -0.394688351072542 0)
(0 -0.394688351072541 0)
(0 -0.394688351072542 0)
(0 -0.394688351072541 0)
(0 -0.394688351072542 0)
(0 -0.394688351072541 0)
(0 -0.394688351072542 0)
(0 -0.394688351072541 0)
(0 -0.394688351072542 0)
(0 -0.394688351072541 0)
(0 -0.394688351072542 0)
(0 -0.394688351072541 0)
(0 -0.394688351072542 0)
(0 -0.394688351072541 0)
(0 -0.394688351072542 0)
(0 -0.394688351072541 0)
(0 -0.394688351072542 0)
(0 -0.394688351072541 0)
(0 -0.394688351072542 0)
(0 -0.394688351072541 0)
(0 -0.394688351072542 0)
(0 -0.394688351072541 0)
(0 -0.394688351072542 0)
(0 -0.394688351072541 0)
(0 -0.394688351072542 0)
(0 -0.394688351072541 0)
(0 -0.394688351072542 0)
(0 -0.394688351072541 0)
(0 -0.394688351072542 0)
(0 -0.394688351072541 0)
(0 -0.394688351072542 0)
(0 -0.394688351072541 0)
(0 -0.394688351072542 0)
(0 -0.394688351072541 0)
(0 -0.394688351072542 0)
(0 -0.394688351072541 0)
(0 -0.394688351072542 0)
(0 -0.394688351072541 0)
(0 -0.394688351072542 0)
(0 -0.394688351072541 0)
(0 -0.394688351072542 0)
(0 -0.394688351072541 0)
(0 -0.394688351072542 0)
(0 -0.394688351072541 0)
(0 -0.394688351072542 0)
(0 -0.394688351072541 0)
(0 -0.394688351072542 0)
(0 -0.394688351072541 0)
(0 -0.394688351072542 0)
(0 -0.394688351072541 0)
(0 -0.394688351072542 0)
(0 -0.394688351072541 0)
(0 -0.394688351072542 0)
(0 -0.394688351072541 0)
(0 -0.394688351072542 0)
(0 -0.394688351072541 0)
(0 -0.394688351072542 0)
(0 -0.394688351072541 0)
(0 -0.394688351072542 0)
(0 -0.394688351072541 0)
(0 -0.394688351072542 0)
(0 -0.394688351072541 0)
(0 -0.394688351072542 0)
(0 -0.394688351072541 0)
(0 -0.394688351072542 0)
(0 -0.394688351072541 0)
(0 -0.394688351072542 0)
(0 -0.394688351072541 0)
(0 -0.394688351072542 0)
(0 -0.394688351072541 0)
(0 -0.394688351072542 0)
(0 -0.394688351072541 0)
(0 -0.394688351072542 0)
(0 -0.394688351072541 0)
(0 -0.394688351072542 0)
(0 -0.394688351072541 0)
(0 -0.394688351072542 0)
(0 -0.394688351072541 0)
(0 -0.394688351072542 0)
(0 -0.394688351072541 0)
(0 -0.394688351072542 0)
(0 -0.394688351072541 0)
(0 -0.394688351072542 0)
(0 -0.394688351072541 0)
(0 -0.394688351072542 0)
(0 -0.394688351072541 0)
(0 -0.394688351072542 0)
(0 -0.394688351072541 0)
(0 -0.394688351072542 0)
(0 -0.394688351072541 0)
(0 -0.394688351072542 0)
(0 -0.394688351072541 0)
(0 -0.394688351072542 0)
(0 -0.394688351072541 0)
(0 -0.394688351072542 0)
(0 -0.394688351072541 0)
(0 -0.394688351072542 0)
(0 -0.394688351072541 0)
(0 -0.394688351072542 0)
(0 -0.394688351072541 0)
(0 -0.394688351072542 0)
(0 -0.394688351072541 0)
(0 -0.394688351072542 0)
(0 -0.394688351072541 0)
(0 -0.394688351072542 0)
(0 -0.394688351072541 0)
(0 -0.394688351072542 0)
(0 -0.394688351072541 0)
(0 -0.394688351072542 0)
(0 -0.394688351072541 0)
(0 -0.394688351072542 0)
(0 -0.394688351072541 0)
(0 -0.394688351072542 0)
(0 -0.394688351072541 0)
(0 -0.394688351072542 0)
(0 -0.394688351072541 0)
(0 -0.394688351072542 0)
(0 -0.394688351072541 0)
(0 -0.394688351072542 0)
(0 -0.394688351072541 0)
(0 -0.394688351072542 0)
(0 -0.394688351072541 0)
(0 -0.394688351072542 0)
(0 -0.394688351072541 0)
(0 -0.394688351072542 0)
(0 -0.394688351072541 0)
(0 -0.394688351072542 0)
(0 -0.394688351072541 0)
(0 -0.394688351072542 0)
(0 -0.394688351072541 0)
(0 -0.394688351072542 0)
(0 -0.394688351072541 0)
(0 -0.394688351072542 0)
(0 -0.394688351072541 0)
(0 -0.394688351072542 0)
(0 -0.394688351072541 0)
(0 -0.394688351072542 0)
(0 -0.394688351072541 0)
(0 -0.394688351072542 0)
(0 -0.394688351072541 0)
(0 -0.394688351072542 0)
(0 -0.394688351072541 0)
(0 -0.394688351072542 0)
(0 -0.394688351072541 0)
(0 -0.394688351072542 0)
(0 -0.394688351072541 0)
(0 -0.394688351072542 0)
(0 -0.394688351072541 0)
(0 -0.394688351072542 0)
(0 -0.394688351072541 0)
(0 -0.394688351072542 0)
(0 -0.394688351072541 0)
(0 -0.394688351072542 0)
(0 -0.394688351072541 0)
(0 -0.394688351072542 0)
(0 -0.394688351072541 0)
(0 -0.394688351072542 0)
(0 -0.394688351072541 0)
(0 -0.394688351072542 0)
(0 -0.394688351072541 0)
(0 -0.394688351072542 0)
(0 -0.394688351072541 0)
(0 -0.394688351072542 0)
(0 -0.394688351072541 0)
(0 -0.394688351072542 0)
(0 -0.394688351072541 0)
(0 -0.394688351072542 0)
(0 -0.394688351072541 0)
(0 -0.394688351072542 0)
(0 -0.394688351072541 0)
(0 -0.394688351072542 0)
(0 -0.394688351072541 0)
(0 -0.394688351072542 0)
(0 -0.394688351072541 0)
(0 -0.394688351072542 0)
(0 -0.394688351072541 0)
(0 -0.394688351072542 0)
(0 -0.394688351072541 0)
(0 -0.394688351072542 0)
(0 -0.394688351072541 0)
(0 -0.394688351072542 0)
(0 -0.394688351072541 0)
(0 -0.394688351072542 0)
(0 -0.394688351072541 0)
(0 -0.394688351072542 0)
(0 -0.394688351072541 0)
(0 -0.394688351072542 0)
(0 -0.394688351072541 0)
(0 -0.394688351072542 0)
(0 -0.394688351072541 0)
(0 -0.394688351072542 0)
(0 -0.394688351072541 0)
(0 -0.394688351072542 0)
(0 -0.394688351072541 0)
(0 -0.394688351072542 0)
(0 -0.394688351072541 0)
(0 -0.394688351072542 0)
(0 -0.394688351072541 0)
(0 -0.394688351072542 0)
(0 -0.394688351072541 0)
(0 -0.394688351072542 0)
(0 -0.394688351072541 0)
(0 -0.394688351072542 0)
(0 -0.394688351072541 0)
(0 -0.394688351072542 0)
(0 -0.394688351072541 0)
(0 -0.394688351072542 0)
(0 -0.394688351072541 0)
(0 -0.394688351072542 0)
(0 -0.394688351072541 0)
(0 -0.394688351072542 0)
(0 -0.394688351072541 0)
(0 -0.394688351072542 0)
(0 -0.394688351072541 0)
(0 -0.394688351072542 0)
(0 -0.394688351072541 0)
(0 -0.394688351072542 0)
(0 -0.394688351072541 0)
(0 -0.394688351072542 0)
(0 -0.394688351072541 0)
(0 -0.394688351072542 0)
(0 -0.394688351072541 0)
(0 -0.394688351072542 0)
(0 -0.394688351072541 0)
(0 -0.394688351072542 0)
(0 -0.394688351072541 0)
(0 -0.394688351072542 0)
(0 -0.394688351072541 0)
(0 -0.394688351072542 0)
(0 -0.394688351072541 0)
(0 -0.394688351072542 0)
(0 -0.394688351072541 0)
(0 -0.394688351072542 0)
(0 -0.394688351072541 0)
(0 -0.394688351072542 0)
(0 -0.394688351072541 0)
(0 -0.394688351072542 0)
(0 -0.394688351072541 0)
(0 -0.394688351072542 0)
(0 -0.394688351072541 0)
(0 -0.394688351072542 0)
(0 -0.394688351072541 0)
(0 -0.394688351072542 0)
(0 -0.394688351072541 0)
(0 -0.394688351072542 0)
(0 -0.394688351072541 0)
(0 -0.394688351072542 0)
(0 -0.394688351072541 0)
(0 -0.394688351072542 0)
(0 -0.394688351072541 0)
(0 -0.394688351072542 0)
(0 -0.394688351072541 0)
(0 -0.394688351072542 0)
(0 -0.394688351072541 0)
(0 -0.394688351072542 0)
(0 -0.394688351072541 0)
(0 -0.394688351072542 0)
(0 -0.394688351072541 0)
(0 -0.394688351072542 0)
(0 -0.394688351072541 0)
(0 -0.394688351072542 0)
(0 -0.394688351072541 0)
(0 -0.394688351072542 0)
(0 -0.394688351072541 0)
(0 -0.394688351072542 0)
(0 -0.394688351072541 0)
(0 -0.394688351072542 0)
(0 -0.394688351072541 0)
(0 -0.394688351072542 0)
(0 -0.394688351072541 0)
(0 -0.394688351072542 0)
(0 -0.394688351072541 0)
(0 -0.394688351072542 0)
(0 -0.394688351072541 0)
(0 -0.394688351072542 0)
(0 -0.394688351072541 0)
(0 -0.394688351072542 0)
(0 -0.394688351072541 0)
(0 -0.394688351072542 0)
(0 -0.394688351072541 0)
(0 -0.394688351072542 0)
(0 -0.394688351072541 0)
(0 -0.394688351072542 0)
(0 -0.394688351072541 0)
(0 -0.394688351072542 0)
(0 -0.394688351072541 0)
(0 -0.394688351072542 0)
(0 -0.394688351072541 0)
(0 -0.394688351072542 0)
(0 -0.394688351072541 0)
(0 -0.394688351072542 0)
(0 -0.394688351072541 0)
(0 -0.394688351072542 0)
(0 -0.394688351072541 0)
(0 -0.394688351072542 0)
(0 -0.394688351072541 0)
(0 -0.394688351072542 0)
(0 -0.394688351072541 0)
(0 -0.394688351072542 0)
(0 -0.394688351072541 0)
(0 -0.394688351072542 0)
(0 -0.394688351072541 0)
(0 -0.394688351072542 0)
(0 -0.394688351072541 0)
(0 -0.394688351072542 0)
(0 -0.394688351072541 0)
(0 -0.394688351072542 0)
(0 -0.394688351072541 0)
(0 -0.394688351072542 0)
(0 -0.394688351072541 0)
(0 -0.394688351072542 0)
(0 -0.394688351072541 0)
(0 -0.394688351072542 0)
(0 -0.394688351072541 0)
(0 -0.394688351072542 0)
(0 -0.394688351072541 0)
(0 -0.394688351072542 0)
(0 -0.394688351072541 0)
(0 -0.394688351072542 0)
(0 -0.394688351072541 0)
(0 -0.394688351072542 0)
(0 -0.394688351072541 0)
(0 -0.394688351072542 0)
(0 -0.394688351072541 0)
(0 -0.394688351072542 0)
(0 -0.394688351072541 0)
(0 -0.394688351072542 0)
(0 -0.394688351072541 0)
(0 -0.394688351072542 0)
(0 -0.394688351072541 0)
(0 -0.394688351072542 0)
(0 -0.394688351072541 0)
(0 -0.394688351072542 0)
(0 -0.394688351072541 0)
(0 -0.394688351072542 0)
(0 -0.394688351072541 0)
(0 -0.394688351072542 0)
(0 -0.394688351072541 0)
(0 -0.394688351072542 0)
(0 -0.394688351072541 0)
(0 -0.394688351072542 0)
(0 -0.394688351072541 0)
(0 -0.394688351072542 0)
(0 -0.394688351072541 0)
(0 -0.394688351072542 0)
(0 -0.394688351072541 0)
(0 -0.394688351072542 0)
(0 -0.394688351072541 0)
(0 -0.394688351072542 0)
(0 -0.394688351072541 0)
(0 -0.394688351072542 0)
(0 -0.394688351072541 0)
(0 -0.394688351072542 0)
(0 -0.394688351072541 0)
(0 -0.394688351072542 0)
(0 -0.394688351072541 0)
(0 -0.394688351072542 0)
(0 -0.394688351072541 0)
(0 -0.394688351072542 0)
(0 -0.394688351072541 0)
(0 -0.394688351072542 0)
(0 -0.394688351072541 0)
(0 -0.394688351072542 0)
(0 -0.394688351072541 0)
(0 -0.394688351072542 0)
(0 -0.394688351072541 0)
(0 -0.394688351072542 0)
(0 -0.394688351072541 0)
(0 -0.394688351072542 0)
(0 -0.394688351072541 0)
(0 -0.394688351072542 0)
(0 -0.394688351072541 0)
(0 -0.394688351072542 0)
(0 -0.394688351072541 0)
(0 -0.394688351072542 0)
(0 -0.394688351072541 0)
(0 -0.394688351072542 0)
(0 -0.394688351072541 0)
(0 -0.394688351072542 0)
(0 -0.394688351072541 0)
(0 -0.394688351072542 0)
(0 -0.394688351072541 0)
(0 -0.394688351072542 0)
(0 -0.394688351072541 0)
(0 -0.394688351072542 0)
(0 -0.394688351072541 0)
(0 -0.394688351072542 0)
(0 -0.394688351072541 0)
(0 -0.394688351072542 0)
(0 -0.394688351072541 0)
(0 -0.394688351072542 0)
(0 -0.394688351072541 0)
(0 -0.394688351072542 0)
(0 -0.394688351072541 0)
(0 -0.394688351072542 0)
(0 -0.394688351072541 0)
(0 -0.394688351072542 0)
(0 -0.394688351072541 0)
(0 -0.394688351072542 0)
(0 -0.394688351072541 0)
(0 -0.394688351072542 0)
(0 -0.394688351072541 0)
(0 -0.394688351072542 0)
(0 -0.394688351072541 0)
(0 -0.394688351072542 0)
(0 -0.394688351072541 0)
(0 -0.394688351072542 0)
(0 -0.394688351072541 0)
(0 -0.394688351072542 0)
(0 -0.394688351072541 0)
(0 -0.394688351072542 0)
(0 -0.394688351072541 0)
(0 -0.394688351072542 0)
(0 -0.394688351072541 0)
(0 -0.394688351072542 0)
(0 -0.394688351072541 0)
(0 -0.394688351072542 0)
(0 -0.394688351072541 0)
(0 -0.394688351072542 0)
(0 -0.394688351072541 0)
(0 -0.394688351072542 0)
(0 -0.394688351072541 0)
(0 -0.394688351072542 0)
(0 -0.394688351072541 0)
(0 -0.394688351072542 0)
(0 -0.394688351072541 0)
(0 -0.394688351072542 0)
(0 -0.394688351072541 0)
(0 -0.394688351072542 0)
(0 -0.394688351072541 0)
(0 -0.394688351072542 0)
(0 -0.394688351072541 0)
(0 -0.394688351072542 0)
(0 -0.394688351072541 0)
(0 -0.394688351072542 0)
(0 -0.394688351072541 0)
(0 -0.394688351072542 0)
(0 -0.394688351072541 0)
(0 -0.394688351072542 0)
(0 -0.394688351072541 0)
(0 -0.394688351072542 0)
(0 -0.394688351072541 0)
(0 -0.394688351072542 0)
(0 -0.394688351072541 0)
(0 -0.394688351072542 0)
(0 -0.394688351072541 0)
(0 -0.394688351072542 0)
(0 -0.394688351072541 0)
(0 -0.394688351072542 0)
(0 -0.394688351072541 0)
(0 -0.394688351072542 0)
(0 -0.394688351072541 0)
(0 -0.394688351072542 0)
(0 -0.394688351072541 0)
(0 -0.394688351072542 0)
(0 -0.394688351072541 0)
(0 -0.394688351072542 0)
(0 -0.394688351072541 0)
(0 -0.394688351072542 0)
(0 -0.394688351072541 0)
(0 -0.394688351072542 0)
(0 -0.394688351072541 0)
(0 -0.394688351072542 0)
(0 -0.394688351072541 0)
(0 -0.394688351072542 0)
(0 -0.394688351072541 0)
(0 -0.394688351072542 0)
(0 -0.394688351072541 0)
(0 -0.394688351072542 0)
(0 -0.394688351072541 0)
(0 -0.394688351072542 0)
(0 -0.394688351072541 0)
(0 -0.394688351072542 0)
(0 -0.394688351072541 0)
)
;

boundaryField
{
    inlet
    {
        type            fixedValue;
        value           uniform (0 -0.394688351072542 0);
    }
    outlet
    {
        type            zeroGradient;
    }
    left
    {
        type            empty;
    }
    right
    {
        type            empty;
    }
    frontAndBack
    {
        type            empty;
    }
}


// ************************************************************************* //
