/*--------------------------------*- C++ -*----------------------------------*\
| =========                 |                                                 |
| \\      /  F ield         | foam-extend: Open Source CFD                    |
|  \\    /   O peration     | Version:     4.0                                |
|   \\  /    A nd           | Web:         http://www.foam-extend.org         |
|    \\/     M anipulation  |                                                 |
\*---------------------------------------------------------------------------*/
FoamFile
{
    version     2.0;
    format      ascii;
    class       volScalarField;
    location    "1";
    object      MaU;
}
// * * * * * * * * * * * * * * * * * * * * * * * * * * * * * * * * * * * * * //

dimensions      [0 0 0 0 0 0 0];

internalField   nonuniform List<scalar> 
160000
(
0.144298212385725
0.14429821554117
0.144298225728518
0.144298242228948
0.144298263222775
0.144298285840015
0.144298306442368
0.144298321000486
0.144298325420019
0.144298316166373
0.144298291755764
0.14429825100425
0.144298195561608
0.144298128998716
0.144298056515727
0.144297984484619
0.144297919664276
0.144297868263281
0.144297835073545
0.144297822918804
0.144297832558974
0.144297861470114
0.14429790527723
0.144297957725121
0.144298011447389
0.144298058809504
0.144298092692155
0.144298107276648
0.144298099131431
0.144298067245817
0.144298013891358
0.144297944158626
0.144297865873323
0.144297788956652
0.14429772444842
0.144297683245
0.144297674673542
0.144297705381772
0.14429777806766
0.144297890864558
0.144298037371264
0.144298206965706
0.144298385933906
0.144298558754148
0.144298709776743
0.144298824984263
0.144298893465132
0.144298908644721
0.144298869204833
0.144298778824257
0.144298646202564
0.144298483774585
0.14429830643113
0.14429812999765
0.144297969212004
0.144297836336935
0.144297739912099
0.144297684014717
0.144297668015907
0.144297687165503
0.144297733278619
0.144297797329323
0.144297869702658
0.144297942233861
0.144298009064441
0.144298067044498
0.144298115650007
0.144298156332136
0.144298191639992
0.14429822444787
0.144298256706345
0.144298288912519
0.144298320100256
0.144298348220345
0.144298370714184
0.144298385150515
0.144298390142824
0.144298385667917
0.14429837337964
0.144298356352667
0.144298338489602
0.144298323785527
0.144298315619524
0.14429831604394
0.144298325288016
0.144298341823637
0.14429836284523
0.144298384736295
0.144298403884868
0.144298417569754
0.144298424714016
0.144298426013683
0.144298423936178
0.144298422102397
0.144298424575034
0.144298434749578
0.144298454603237
0.144298483997485
0.144298520435686
0.144298559390699
0.144298594993622
0.144298621042166
0.144298632193699
0.144298625511111
0.144298600141741
0.144298558803922
0.144298506059778
0.144298447952085
0.144298390853933
0.144298340196007
0.14429829943378
0.144298269614698
0.14429824936158
0.14429823538273
0.144298224657151
0.144298214413838
0.144298203235095
0.144298192710552
0.144298185983677
0.144298187274364
0.144298200779288
0.144298229153416
0.144298272026724
0.144298325533862
0.144298382527736
0.144298433581909
0.144298468688186
0.144298479309595
0.144298460210633
0.144298410644755
0.14429833492708
0.144298241990214
0.144298143826829
0.144298053478835
0.144297982904938
0.14429794114956
0.144297933163419
0.144297959252162
0.144298015318237
0.144298093876851
0.144298185315617
0.144298279356054
0.144298366053109
0.144298437127257
0.144298486370381
0.144298509102179
0.144298505408032
0.144298474731806
0.144298421098299
0.144298349956821
0.144298268245438
0.144298183864818
0.14429810460922
0.144298037038144
0.14429798548385
0.144297951348858
0.144297932754383
0.14429792484452
0.144297920743758
0.144297913081382
0.144297895682038
0.144297865089814
0.144297821528038
0.144297769056978
0.144297715084907
0.144297669084851
0.144297640818769
0.144297638551916
0.14429766753199
0.144297729009942
0.144297820129048
0.144297934365551
0.144298062764725
0.144298195493248
0.144298323133557
0.144298437791313
0.144298533666411
0.144298607206838
0.144298656870073
0.144298682420818
0.144298684143377
0.144298663300671
0.144298619900201
0.144298555142235
0.144298470881307
0.144298370181139
0.144298257829832
0.144298140504493
0.144298026519843
0.144297924945639
0.144297844418439
0.144297791964563
0.144297771805058
0.144297784435985
0.144297826085934
0.144297889152568
0.14429796327224
0.144298036948649
0.144298099456661
0.144298142690897
0.144298162626568
0.144298160129329
0.144298140845347
0.144298114213288
0.144298091687375
0.144298085004882
0.144298103310928
0.144298152481343
0.144298232824111
0.144298339581282
0.144298463196135
0.144298590765913
0.144298707945634
0.144298800959256
0.144298858512451
0.144298873977058
0.144298846456437
0.144298778846771
0.144298679354817
0.144298559974145
0.144298434031112
0.144298314328371
0.144298211595152
0.144298133155974
0.144298082142208
0.144298057519385
0.144298054902362
0.144298067408717
0.144298087511157
0.144298108540878
0.144298125779863
0.144298137100654
0.144298143053898
0.144298146252371
0.14429815011493
0.144298157942501
0.144298171723432
0.144298191478153
0.144298215122367
0.144298238954904
0.144298258499114
0.144298269536503
0.14429826907644
0.144298256027757
0.144298231684799
0.144298199390629
0.144298163973691
0.144298130485471
0.144298103246807
0.14429808528909
0.144298077708145
0.144298079603802
0.144298088464426
0.144298101021073
0.14429811415772
0.144298125599167
0.144298134394312
0.144298140978188
0.144298146928249
0.14429815439043
0.144298165285188
0.144298180458221
0.144298199291595
0.144298219736164
0.144298238605694
0.14429825237667
0.144298258188509
0.144298254676902
0.144298242375847
0.144298223944884
0.14429820376058
0.144298186953708
0.144298178444836
0.144298182150852
0.14429819844304
0.144298225175346
0.144298257513826
0.14429828847765
0.144298310405836
0.144298316692554
0.144298303175814
0.144298269371341
0.144298218741803
0.144298158345499
0.14429809765158
0.144298046860116
0.144298015038849
0.144298008478317
0.14429802899007
0.144298073023934
0.144298134806711
0.144298205744144
0.144298274123822
0.144298329651144
0.144298364689778
0.144298374898388
0.144298360121112
0.144298323391778
0.144298270893054
0.144298210375895
0.144298149685986
0.144298095513184
0.144298052503567
0.144298022818566
0.144298006311097
0.144298001168916
0.144298004174281
0.144298011939077
0.144298021515111
0.144298031077155
0.144298039724392
0.14429804753564
0.144298055702556
0.144298065820067
0.144298078899177
0.144298095347233
0.14429811470717
0.144298135404876
0.144298154987387
0.144298170697354
0.14429818001787
0.144298181319242
0.144298173345549
0.144298156655793
0.144298133105818
0.144298105489987
0.144298076899917
0.144298050320474
0.144298027977611
0.144298011117116
0.144297999483391
0.144297992052365
0.144297987633968
0.144297983899331
0.144297979505128
0.144297974313316
0.144297969030874
0.144297965319142
0.144297965789646
0.144297973332155
0.144297990074579
0.144298016946082
0.144298053553065
0.144298098168317
0.144298147820554
0.144298198729817
0.14429824683603
0.14429828823783
0.144298319686728
0.144298338946314
0.144298344845955
0.144298337380527
0.144298317631967
0.144298287585408
0.144298249870903
0.144298207877804
0.144298165428488
0.14429812642437
0.144298094868324
0.1442980744526
0.144298067866649
0.144298076714738
0.144298100913217
0.144298138796937
0.144298187083109
0.144298241277065
0.144298296262758
0.144298347014962
0.144298389250786
0.144298419826067
0.144298437133892
0.144298441230681
0.144298432478099
0.144298412460277
0.144298383321731
0.144298346899543
0.144298304815027
0.144298258667896
0.144298210148444
0.144298161345782
0.144298114838337
0.144298073577472
0.144298040634749
0.144298018844132
0.144298010382047
0.144298016146795
0.144298035363787
0.144298065589643
0.144298103165977
0.144298143750937
0.144298182853575
0.144298216347734
0.144298241065185
0.144298255735181
0.144298261115147
0.144298258145719
0.144298248961987
0.144298236746353
0.144298224791234
0.144298215933183
0.144298026831708
0.144298025133307
0.144298041702117
0.14429807567628
0.14429812426948
0.144298182915085
0.144298245521843
0.144298304878001
0.144298353049712
0.144298382140509
0.144298385237975
0.14429835765089
0.144298297923258
0.144298208818319
0.144298097670999
0.14429797599088
0.14429785823603
0.144297759863844
0.14429769487991
0.144297673474321
0.144297700248951
0.14429777221222
0.144297879464337
0.144298006261713
0.144298133260937
0.144298240604439
0.144298311230272
0.14429833374747
0.144298304304651
0.144298227235093
0.144298114328932
0.144297982844666
0.144297852720298
0.144297743362242
0.14429767077904
0.144297645351487
0.144297670757869
0.14429774399731
0.144297856317657
0.144297995220808
0.1442981465945
0.144298296882839
0.144298434881936
0.144298552558421
0.144298645129401
0.1442987106592
0.144298749061869
0.144298760997949
0.144298747132413
0.144298707438967
0.144298641621014
0.144298549726225
0.144298433228897
0.144298295960999
0.144298144621213
0.144297989101841
0.144297841893212
0.144297716364897
0.144297625005616
0.144297577326888
0.144297576982958
0.144297624284781
0.144297712716994
0.144297831457565
0.144297967068279
0.14429810550487
0.144298234068991
0.144298343078293
0.144298426842795
0.144298483802511
0.144298515521167
0.144298525527047
0.144298518190051
0.144298497672356
0.144298467443305
0.144298430082295
0.144298387810147
0.144298342907783
0.144298298380964
0.144298258100239
0.144298226456824
0.144298207704083
0.144298205108998
0.144298219911069
0.144298250698816
0.144298293339458
0.144298341520155
0.144298387767906
0.144298424815618
0.144298447124563
0.144298452110224
0.144298440498501
0.144298416445952
0.144298386400309
0.144298357705844
0.144298337086333
0.144298328969288
0.144298334550741
0.144298351545576
0.144298374709679
0.144298397014486
0.144298411195475
0.144298411714199
0.144298395789011
0.144298364509361
0.144298322430779
0.144298276156057
0.144298233345053
0.144298200831087
0.14429818310623
0.144298181282078
0.144298192936738
0.144298212763558
0.144298233689081
0.144298249635864
0.144298256261479
0.144298252310956
0.144298240552622
0.144298226599305
0.14429821760763
0.144298220345282
0.144298239306328
0.144298274683272
0.14429832192976
0.144298372269364
0.144298414196466
0.144298435820932
0.144298427453382
0.14429838394199
0.1442983062801
0.144298201799029
0.144298083232119
0.144297966564161
0.14429786824107
0.14429780229714
0.144297778057098
0.144297798781984
0.144297861457786
0.144297957496105
0.144298074490358
0.144298198283697
0.144298315232987
0.144298413946924
0.144298486366156
0.144298528299411
0.144298539414773
0.144298522103384
0.144298481856194
0.144298425148804
0.144298359545588
0.144298292080634
0.144298228866748
0.144298174714451
0.144298131901522
0.144298100251802
0.144298077037702
0.144298057385511
0.144298035315838
0.144298005122241
0.14429796272539
0.144297906771129
0.144297839395784
0.144297766409339
0.144297696566429
0.144297639779287
0.144297605773392
0.144297602082521
0.144297632391877
0.144297696285294
0.144297788940342
0.144297902107385
0.144298025713047
0.144298149680257
0.144298265594784
0.144298367855311
0.144298453832972
0.144298523601348
0.144298578977353
0.144298621998579
0.144298653662744
0.144298672941521
0.144298677695655
0.144298662907515
0.144298624261391
0.144298558790741
0.144298466583773
0.144298351995278
0.144298223902168
0.14429809494255
0.144297979544599
0.144297891399749
0.144297840970965
0.144297833216154
0.144297866204582
0.144297930833524
0.14429801248137
0.144298093671513
0.144298157465573
0.144298190913897
0.144298187796726
0.144298150112826
0.144298087892851
0.144298017367387
0.144297957829801
0.144297927971186
0.144297941766847
0.14429800736495
0.144298123054567
0.144298279976209
0.144298462145522
0.144298649683142
0.144298821884337
0.144298960227393
0.144299050852635
0.14429908608025
0.144299064572587
0.144298990994685
0.144298875253105
0.144298730442756
0.144298571117039
0.144298411426996
0.144298263885449
0.144298138390727
0.144298041197017
0.14429797476483
0.144297937890176
0.144297926359172
0.144297933565341
0.144297951873862
0.144297974195748
0.144297995029987
0.144298011435129
0.144298023384917
0.144298033487464
0.144298046093745
0.144298066050136
0.144298097211589
0.144298141164771
0.144298196451906
0.144298258673965
0.144298320882366
0.144298374851905
0.14429841271708
0.144298428362733
0.144298419095304
0.14429838520441
0.144298330778093
0.144298262662433
0.144298189023764
0.144298118003204
0.144298056597754
0.144298009682159
0.144297979733877
0.144297967098618
0.14429797059298
0.14429798822266
0.144298017746648
0.144298056958486
0.14429810369961
0.144298155595383
0.144298209731182
0.144298262148907
0.14429830788142
0.144298341524849
0.144298357832011
0.144298352833783
0.144298325046459
0.144298276268111
0.144298211601058
0.144298139168168
0.144298069232749
0.144298012537183
0.144297978798449
0.144297975320503
0.144298004287564
0.144298063376806
0.144298145682767
0.144298240397109
0.144298334476476
0.144298414737515
0.144298469789783
0.144298491985553
0.144298478743225
0.144298432809156
0.144298362060439
0.14429827820264
0.144298194859607
0.144298125342938
0.144298080195946
0.144298065204359
0.144298081342579
0.144298124067487
0.144298183368311
0.14429824654359
0.144298300332282
0.144298333173704
0.144298337687926
0.144298311240004
0.144298257234416
0.144298184156811
0.144298103896537
0.144298029511674
0.144297972826087
0.144297942334608
0.14429794179097
0.144297969745244
0.144298019729392
0.144298081552289
0.144298143344304
0.144298193726576
0.144298223735986
0.144298227684269
0.144298204972283
0.144298159477027
0.144298098352577
0.144298030698207
0.144297966384805
0.144297913919549
0.144297879598793
0.144297866721812
0.144297875553942
0.144297903655133
0.144297946537002
0.144297998673296
0.144298054343645
0.144298108072214
0.14429815484805
0.144298190374144
0.144298211250493
0.144298214904537
0.144298199893889
0.1442981661155
0.144298115322741
0.144298051131339
0.144297979397208
0.144297907668898
0.144297844292115
0.144297797601684
0.14429777490687
0.14429778094321
0.144297816771896
0.144297879833101
0.144297964217243
0.144298061330439
0.144298161206909
0.144298254055927
0.14429833144611
0.144298387152916
0.144298417880599
0.144298423414541
0.14429840612774
0.144298370517887
0.144298322471075
0.144298268669186
0.144298215622637
0.144298169459472
0.144298135258343
0.144298116493846
0.144298114776904
0.144298129749156
0.144298158888884
0.144298197760435
0.144298240574696
0.144298281172815
0.144298314006577
0.144298335168319
0.144298343182146
0.144298339374262
0.144298327579207
0.144298313208899
0.14429830211055
0.144298299721296
0.144298307081439
0.144298323581064
0.144298345042729
0.144298364476339
0.144298373779108
0.144298365598151
0.14429833506229
0.144298281286812
0.144298207895063
0.144298122617655
0.144298036054851
0.144297959817702
0.144297904416626
0.144297877207463
0.144297880958464
0.144297913388822
0.144297967859786
0.14429803464769
0.144298102710574
0.144298161501216
0.144298202753265
0.144298221969214
0.144298219365147
0.144298197163131
0.144298161163632
0.144298118841736
0.144298078020219
0.14429804558101
0.144297924579908
0.144297928948853
0.144297955987938
0.144298003975007
0.144298069127924
0.144298145906757
0.144298227226991
0.144298304823487
0.14429836976398
0.144298413068328
0.144298425698613
0.14429840258879
0.144298341292308
0.144298244386233
0.144298120119548
0.144297981955616
0.144297847190898
0.144297734651338
0.144297661667962
0.144297640958528
0.144297678070684
0.144297769628275
0.144297903231446
0.144298059099784
0.144298213008162
0.144298340338315
0.1442984203726
0.14429844000625
0.144298395745034
0.144298294885934
0.144298153690451
0.144297994862566
0.144297843534656
0.144297722913352
0.144297650598404
0.144297635987126
0.144297679474794
0.144297773092606
0.144297902423019
0.144298049916661
0.144298198057165
0.144298332278277
0.14429844312149
0.144298526806488
0.144298584408988
0.144298620380622
0.144298640367989
0.144298648913491
0.144298647674697
0.144298634957613
0.14429860594433
0.144298554187401
0.144298474141722
0.144298363429935
0.144298224283767
0.14429806494309
0.14429789947811
0.14429774569797
0.144297622086881
0.144297544690528
0.144297525130059
0.144297566522429
0.14429766472591
0.144297807966309
0.144297979128652
0.144298158734322
0.144298327963936
0.144298471440313
0.144298579088157
0.144298646746011
0.144298675447902
0.144298670049426
0.144298637554618
0.144298585313511
0.14429852000025
0.144298447080396
0.14429837102222
0.14429829578816
0.144298225511513
0.144298164826073
0.144298118671939
0.144298091619124
0.144298086891464
0.144298105285464
0.144298144452079
0.144298198718232
0.144298259725528
0.144298317718416
0.144298363242729
0.14429838895689
0.144298391077003
0.144298370040246
0.144298330543764
0.144298280332718
0.144298228526986
0.144298183675261
0.144298151931891
0.144298135809198
0.14429813389465
0.144298141359394
0.14429815132635
0.144298156864967
0.144298153463334
0.14429813624746
0.14429810865928
0.144298074676029
0.144298041352743
0.144298016251459
0.144298005507723
0.144298012232175
0.144298035789118
0.144298071800241
0.144298113078799
0.144298151263299
0.144298178764707
0.144298190608074
0.144298187423463
0.144298171383084
0.144298149744008
0.144298131237186
0.144298123842209
0.144298132896079
0.144298159181889
0.144298198268404
0.144298241203185
0.14429827613931
0.144298290873214
0.144298275723202
0.144298225725242
0.144298142572402
0.14429803454682
0.144297915464153
0.144297802341872
0.144297712392015
0.144297659973531
0.144297654099928
0.144297696991121
0.144297784090532
0.144297904832512
0.14429804459788
0.144298187232716
0.144298317495211
0.144298423417048
0.144298497029219
0.144298535053193
0.144298539766603
0.14429851433465
0.144298468270266
0.144298409655745
0.144298347337712
0.144298289061611
0.144298240559848
0.144298204898114
0.144298182092259
0.14429816932427
0.144298161333426
0.1442981513025
0.144298132238288
0.144298098599926
0.144298047587674
0.14429797995559
0.144297900427067
0.144297817370361
0.144297741578484
0.144297683902221
0.14429765397063
0.144297658031701
0.144297697426025
0.144297769113795
0.144297865707817
0.144297976936085
0.144298091711474
0.144298200187697
0.144298295427638
0.144298374213194
0.144298436926625
0.144298486721046
0.144298527874158
0.144298563892503
0.144298596159029
0.144298623033538
0.144298639810042
0.144298639701567
0.144298615652229
0.144298562477553
0.144298478973045
0.144298369311365
0.144298243322333
0.144298115362006
0.144298001865674
0.144297918320038
0.144297876142299
0.144297879934584
0.144297926002335
0.144298002455907
0.14429809135017
0.144298172131403
0.144298225809009
0.144298239028081
0.144298207153812
0.144298135671563
0.144298039419867
0.144297939887223
0.144297861056198
0.144297824701263
0.144297846328328
0.144297931711701
0.144298076854282
0.144298267675333
0.144298483039668
0.144298698243375
0.144298889205731
0.14429903580044
0.144299124403259
0.144299149288417
0.144299111871741
0.144299019000576
0.144298884226262
0.144298722688158
0.144298549603412
0.144298379228392
0.144298223724942
0.144298092251044
0.144297990489203
0.144297920626113
0.144297881498146
0.144297869076337
0.144297876915463
0.144297897539824
0.14429792346367
0.14429794856073
0.144297969143217
0.144297984501153
0.144297996905233
0.144298010953559
0.144298032275776
0.144298065939215
0.144298114924799
0.144298178983728
0.14429825422719
0.144298333559447
0.144298407692123
0.14429846671506
0.144298502251002
0.144298509237764
0.14429848574661
0.144298434398085
0.144298361640055
0.144298276243243
0.144298187770523
0.144298105276024
0.144298036057082
0.144297985080256
0.144297954862946
0.144297945885533
0.144297957162861
0.144297986734235
0.144298031929528
0.144298089523993
0.144298155362674
0.144298224283437
0.14429829002052
0.144298345364568
0.144298382944203
0.144298396246723
0.144298380891392
0.144298335825212
0.144298264310307
0.144298173646418
0.144298074691507
0.144297980803376
0.144297905697027
0.144297861603342
0.144297857217533
0.144297895881165
0.144297975150175
0.144298086802587
0.144298217788011
0.144298352028521
0.144298472646339
0.144298564258326
0.144298615231274
0.144298619725045
0.144298578222175
0.144298497746394
0.144298390849573
0.144298273677178
0.144298163424971
0.144298075471223
0.144298020796501
0.144298004455501
0.144298024496512
0.144298072387679
0.14429813473497
0.144298195875755
0.144298240871094
0.144298258451403
0.144298243173811
0.144298196589418
0.144298126899078
0.144298047323483
0.144297973458647
0.144297920191451
0.144297898742858
0.144297914461473
0.144297965966854
0.144298045089807
0.144298138324166
0.144298229404611
0.144298302328725
0.144298343965265
0.144298346347572
0.144298307783728
0.144298233314059
0.144298133274549
0.144298021668487
0.144297913422746
0.144297822363049
0.144297759604274
0.144297731671964
0.14429774025102
0.144297782571856
0.144297852339599
0.144297940633921
0.144298037601028
0.144298133238015
0.144298218133906
0.144298284129595
0.144298325087775
0.144298336734037
0.144298317486545
0.144298268031491
0.144298191636368
0.144298095571312
0.144297989479165
0.144297884657336
0.144297793030004
0.144297725975313
0.144297692762952
0.144297698791086
0.144297744598483
0.144297825956615
0.144297934370232
0.144298058078117
0.144298183932435
0.14429829935395
0.144298393757299
0.144298459670748
0.144298493506138
0.14429849565563
0.14429846987587
0.144298422574806
0.144298361672813
0.144298295829926
0.144298233425784
0.14429818183127
0.144298146636472
0.14429813108717
0.144298135794165
0.144298158619125
0.144298194814639
0.144298237472066
0.144298278664132
0.144298310806056
0.144298328031087
0.144298327423807
0.144298309772551
0.144298279679631
0.144298244793099
0.144298214278513
0.144298197002608
0.144298199252052
0.144298223202064
0.144298265806983
0.14429831926915
0.144298372449999
0.144298412795381
0.144298428931027
0.144298413212143
0.144298363495597
0.144298283944581
0.144298184364151
0.144298078479309
0.144297981425702
0.14429790693875
0.144297864706479
0.144297858701472
0.144297886481448
0.144297940257281
0.144298008284036
0.144298077275528
0.144298134822652
0.144298171482265
0.14429818231266
0.144298167643979
0.144298131646849
0.144298081884872
0.14429802769532
0.144297978442862
0.144297942131455
0.144297814459628
0.144297831059218
0.144297873958496
0.144297940347996
0.144298025344114
0.144298122362946
0.144298223346948
0.144298319107429
0.144298399687646
0.144298454972565
0.144298475652172
0.144298455331433
0.144298391434619
0.144298286921914
0.144298151088968
0.144297999215968
0.144297851019897
0.144297727974732
0.144297649865603
0.144297631159659
0.144297677959313
0.144297786157977
0.144297941217439
0.144298120051949
0.144298294599963
0.14429843655951
0.144298522411063
0.144298537632926
0.144298479351777
0.144298356864514
0.144298190099772
0.144298006113549
0.144297834203914
0.144297700736194
0.144297624831184
0.144297615611325
0.144297671167994
0.144297779812829
0.144297923015735
0.144298079253641
0.144298228204419
0.144298354247633
0.144298448930495
0.144298511426621
0.144298546978383
0.14429856466208
0.144298574280428
0.144298583091126
0.144298593510295
0.144298602285758
0.144298601061828
0.144298578539027
0.144298523841141
0.14429842994714
0.144298296107739
0.144298129675614
0.144297946311968
0.144297767456757
0.144297616743291
0.144297515583468
0.144297481022162
0.144297519151803
0.14429762713037
0.144297792323074
0.144297994494199
0.144298209400023
0.144298413435733
0.144298586669011
0.144298714954465
0.144298791738838
0.144298817347972
0.144298797452428
0.144298740867572
0.144298657462867
0.144298556543703
0.144298446120603
0.1442983330379
0.144298223264948
0.144298122574417
0.144298036933686
0.144297972352441
0.144297934120697
0.144297925662561
0.144297947481641
0.144297996085445
0.144298064071282
0.14429814076082
0.144298213775584
0.144298271101355
0.144298303235528
0.144298304942946
0.144298276210659
0.144298222134449
0.144298151758112
0.144298076077654
0.144298005746818
0.144297948941726
0.144297909848343
0.1442978882233
0.144297879896235
0.144297878288921
0.144297876588941
0.144297869498039
0.144297854744388
0.144297832323185
0.144297807897941
0.144297788855091
0.144297782317715
0.144297793663885
0.144297824956033
0.144297874055791
0.144297934767936
0.144297998031464
0.14429805382804
0.144298093515351
0.144298111938185
0.144298108348805
0.144298087169491
0.144298056463137
0.144298026281349
0.144298006137056
0.144298002538865
0.14429801730941
0.144298046467486
0.144298081086469
0.144298109025619
0.144298117684717
0.144298097000653
0.144298041996874
0.144297954553702
0.144297843567815
0.14429772373317
0.144297613080432
0.144297529776972
0.144297488852211
0.144297499486376
0.144297563464926
0.144297675079717
0.144297822052023
0.144297987660875
0.144298153580534
0.144298302721277
0.144298421601238
0.144298501893029
0.14429854082753
0.144298540900874
0.14429850922906
0.144298455691466
0.144298391559348
0.144298327678257
0.144298273083314
0.144298233846332
0.144298212406592
0.144298207357078
0.144298213740479
0.144298223976144
0.14429822916584
0.144298220820243
0.144298192706774
0.144298142204456
0.14429807119204
0.144297986132525
0.144297897220877
0.144297816743721
0.144297757044207
0.144297727872057
0.144297734660655
0.144297777708951
0.144297851936865
0.144297947891685
0.144298053775276
0.144298157672616
0.144298249875456
0.144298324586344
0.144298380540234
0.144298420639021
0.144298450672255
0.144298477097072
0.144298504764117
0.144298535462483
0.144298566949565
0.144298592926717
0.144298604570333
0.144298592617271
0.144298550043947
0.144298474515523
0.144298370014003
0.144298247122032
0.144298121590055
0.144298011461805
0.144297933675555
0.144297900349818
0.144297915653537
0.144297974275626
0.144298061888749
0.144298157666586
0.144298238360819
0.144298283127416
0.144298278165223
0.14429822011485
0.144298117406381
0.144297989064023
0.14429786123936
0.144297762215462
0.144297716930312
0.144297742195451
0.144297843723102
0.14429801456584
0.144298236961703
0.144298485199541
0.144298730028439
0.144298943804489
0.144299104146509
0.144299196443455
0.144299215460929
0.144299164554835
0.144299053534984
0.144298898056272
0.14429871544312
0.144298522810258
0.144298335717501
0.144298167005417
0.144298026050557
0.14429791852053
0.144297846448231
0.144297808436859
0.144297800051605
0.144297814247009
0.144297842796196
0.144297877241642
0.14429791043127
0.144297937704573
0.144297957671937
0.144297972379145
0.144297986933788
0.144298007906036
0.144298041848277
0.144298093225532
0.144298163095282
0.144298248418944
0.144298342088281
0.144298434202047
0.14429851358818
0.14429856980311
0.144298595170009
0.14429858622837
0.144298544128847
0.14429847417234
0.144298384929299
0.144298286586749
0.144298189394024
0.144298102342396
0.144298032308639
0.144297983762262
0.14429795894044
0.14429795826153
0.144297980595943
0.144298023470343
0.144298083389163
0.144298155179804
0.144298232009957
0.144298305598549
0.144298366584065
0.144298405577604
0.14429841456523
0.144298388382169
0.144298326098746
0.144298231985365
0.144298115465495
0.144297990351392
0.144297873247038
0.144297781190053
0.144297729157317
0.144297727739616
0.144297781267547
0.144297886821358
0.144298034274028
0.144298207473528
0.14429838635857
0.144298549533403
0.144298677104496
0.14429875349177
0.144298769924989
0.144298725516771
0.144298627545962
0.1442984905289
0.144298334060613
0.14429817980052
0.144298048040543
0.144297954496658
0.144297907671583
0.144297907602966
0.14429794634127
0.144298009344318
0.144298078433523
0.144298135487046
0.144298166043447
0.144298162251902
0.144298124436376
0.144298060811703
0.144297985900225
0.144297917517723
0.144297873069942
0.144297865889375
0.14429790242733
0.144297980834641
0.144298091100886
0.144298216579339
0.14429833707662
0.144298432403781
0.144298485923876
0.144298487359533
0.144298434634414
0.144298333793751
0.144298198106672
0.144298046022061
0.144297897140152
0.144297770184402
0.144297680494965
0.144297637620592
0.144297644714351
0.144297698726367
0.144297791502586
0.144297911141962
0.144298043858671
0.144298175538235
0.144298292759462
0.144298384014949
0.144298440634747
0.144298457121446
0.144298431555393
0.144298365651371
0.144298264815052
0.144298139010636
0.144298001137113
0.144297865924943
0.144297748514091
0.144297662872618
0.144297619952221
0.144297625876369
0.144297680940144
0.144297779542396
0.144297910972627
0.144298060758222
0.144298212857566
0.144298351953871
0.144298465181263
0.14429854351312
0.144298582679097
0.144298583226677
0.144298549932333
0.144298490800641
0.144298415764137
0.144298335513168
0.144298260309457
0.144298198895213
0.144298157581294
0.14429813960091
0.144298144771931
0.144298169519433
0.144298207185415
0.144298248935827
0.14429828521317
0.144298307459873
0.144298309813831
0.144298290316324
0.144298251769821
0.144298201534392
0.144298150336169
0.14429811021891
0.144298091979022
0.144298102929163
0.144298145266971
0.144298214074027
0.144298298750883
0.144298384681311
0.144298455725464
0.144298497345387
0.144298499636603
0.144298459243316
0.144298380551457
0.144298274625562
0.144298157209135
0.144298045744168
0.144297956040663
0.144297899378678
0.144297880521875
0.144297897020612
0.144297940526507
0.144297998266591
0.144298055917967
0.144298100453258
0.144298122387526
0.144298117298518
0.144298086303213
0.144298035201975
0.144297973167147
0.144297910851434
0.144297858504789
0.14429782450673
0.144297727434142
0.144297761448765
0.144297822966127
0.144297907980136
0.144298010674702
0.144298123651013
0.144298238369733
0.144298345377578
0.144298434571565
0.144298495831613
0.14429852025038
0.144298501267988
0.144298436832722
0.144298330357035
0.144298191746712
0.144298037019721
0.144297886689366
0.144297762960494
0.144297686154236
0.144297671022113
0.144297723502868
0.144297838806143
0.144298001335857
0.144298186656484
0.144298365286044
0.144298507700441
0.144298589619769
0.144298596395684
0.144298525739298