/*--------------------------------*- C++ -*----------------------------------*\
| =========                 |                                                 |
| \\      /  F ield         | foam-extend: Open Source CFD                    |
|  \\    /   O peration     | Version:     4.0                                |
|   \\  /    A nd           | Web:         http://www.foam-extend.org         |
|    \\/     M anipulation  |                                                 |
\*---------------------------------------------------------------------------*/
FoamFile
{
    version     2.0;
    format      ascii;
    class       volScalarField;
    location    "1";
    object      p;
}
// * * * * * * * * * * * * * * * * * * * * * * * * * * * * * * * * * * * * * //

dimensions      [1 -1 -2 0 0 0 0];

internalField   nonuniform List<scalar> 
160000
(
2.3706858349062
2.37068607417863
2.37068639750279
2.37068676656708
2.37068713430512
2.37068744939542
2.37068766057416
2.3706877214335
2.37068759661644
2.37068726700219
2.37068673645721
2.37068602912796
2.37068519544986
2.37068430594882
2.37068344323477
2.37068269209446
2.37068212865894
2.37068181026995
2.37068176763595
2.37068200143259
2.37068247973321
2.37068314912588
2.37068393290805
2.37068474297377
2.37068548714806
2.37068607630358
2.37068643115543
2.37068648874604
2.37068621071739
2.37068558645984
2.37068464215745
2.37068344293012
2.37068209285057
2.37068072986117
2.37067951502869
2.37067861595471
2.37067818576507
2.37067834199764
2.37067914778636
2.37068059644558
2.37068260631083
2.3706850251901
2.3706876444377
2.37069022098517
2.37069250440975
2.37069426648601
2.3706953284503
2.37069558205183
2.37069499961255
2.37069364218438
2.37069164675249
2.37068921297
2.37068657870013
2.37068399179179
2.37068168198252
2.37067983483976
2.37067857262623
2.37067794395713
2.37067792359925
2.37067842376919
2.37067931004347
2.37068042998683
2.37068163233838
2.37068279145413
2.37068382122111
2.37068468048041
2.37068537019927
2.3706859214699
2.37068637943871
2.37068678683839
2.37068717018156
2.37068753172036
2.37068784934437
2.37068808453376
2.37068819128295
2.3706881324885
2.37068788873052
2.37068746948533
2.37068691362991
2.3706862848364
2.37068566123155
2.37068512115679
2.37068472894148
2.37068452363586
2.37068451138056
2.37068466570742
2.37068493283684
2.37068524256231
2.37068552298224
2.37068571525959
2.37068578491094
2.37068573288967
2.37068558771263
2.37068540674755
2.3706852600175
2.37068521582872
2.37068532510165
2.37068560941642
2.3706860546122
2.37068661194663
2.3706872069175
2.37068775382701
2.37068817318528
2.37068840744671
2.37068843351808
2.37068826541078
2.37068794918995
2.37068755245213
2.37068714760807
2.37068679437251
2.37068652554546
2.37068634076085
2.37068621016827
2.37068608669103
2.37068591758877
2.37068566835473
2.37068533998995
2.37068496473899
2.37068461277192
2.37068437447008
2.37068433899958
2.37068456791295
2.3706850763217
2.37068582127525
2.37068670294574
2.37068757921701
2.37068829158225
2.3706886963992
2.37068869500084
2.37068825526328
2.37068742144858
2.37068630821513
2.37068508106264
2.37068392700415
2.3706830224672
2.37068250418065
2.3706824491518
2.37068286606449
2.37068369897716
2.37068484010809
2.37068614910318
2.37068747405158
2.37068867019301
2.37068961589158
2.37069022172409
2.37069043353911
2.37069024439842
2.37068967676373
2.37068879779664
2.37068770571075
2.37068652250588
2.37068538144608
2.37068441003958
2.37068371088013
2.37068334465809
2.37068331782157
2.37068357834033
2.37068402183707
2.37068450864558
2.37068489038735
2.37068503914403
2.37068487371383
2.37068437771033
2.37068360556042
2.37068267352559
2.37068173799737
2.37068096762649
2.37068051272722
2.37068047965695
2.37068091373705
2.37068179433217
2.37068304222775
2.37068453682056
2.37068613800149
2.37068770823487
2.37068912976041
2.37069031529373
2.3706912100941
2.37069178778901
2.37069204239579
2.37069198089699
2.37069160677562
2.37069094320312
2.37069000746051
2.37068882985252
2.37068746055816
2.37068597354615
2.37068446712242
2.37068305853346
2.37068187247278
2.37068102448831
2.37068060142346
2.37068064407979
2.37068113501518
2.37068199600673
2.3706830935429
2.37068425626272
2.37068530051213
2.37068606039529
2.3706864166366
2.37068631859283
2.3706857954229
2.37068495407234
2.3706839637993
2.37068302923258
2.3706823550167
2.37068211298516
2.37068241092902
2.37068327467674
2.37068464060256
2.37068636543816
2.37068824683994
2.3706900530742
2.37069155741963
2.37069257408487
2.37069298243472
2.37069274391717
2.37069190397298
2.37069058441464
2.37068896158607
2.37068724083944
2.37068562292029
2.37068427442338
2.37068330573138
2.37068275895638
2.37068260896336
2.37068277349738
2.37068313505964
2.37068356532143
2.37068395176805
2.37068421665307
2.37068432804513
2.37068429984286
2.37068418201003
2.37068404459232
2.37068395762671
2.37068397366882
2.37068411511159
2.37068437110108
2.37068470232366
2.37068505231965
2.37068536279706
2.37068558849382
2.37068570790997
2.37068572732888
2.37068567694495
2.3706856024547
2.37068555089701
2.37068555797163
2.3706856380004
2.37068578001581
2.3706859503107
2.37068610088873
2.37068618195429
2.37068615438232
2.37068600141549
2.37068573300662
2.37068538531657
2.37068501264109
2.37068467454052
2.37068442202686
2.37068428613558
2.37068426945539
2.37068434530946
2.37068446568016
2.37068457431051
2.37068462291635
2.37068458505626
2.37068446648377
2.37068430758527
2.37068417710484
2.37068415561562
2.37068431530182
2.37068469772774
2.3706853030376
2.37068607858302
2.3706869240461
2.37068770582049
2.37068828261582
2.37068853351122
2.37068838452842
2.37068782712182
2.37068692209135
2.37068579418389
2.37068461212352
2.37068355791982
2.37068279431791
2.37068243587893
2.37068252865522
2.37068304327009
2.37068388092807
2.37068489346949
2.37068591358351
2.37068678307028
2.37068737993528
2.37068763671263
2.3706875449652
2.37068715697265
2.3706865632
2.37068587427029
2.37068519922719
2.37068462634167
2.37068421038799
2.37068396803576
2.37068388118024
2.37068390699629
2.37068399293929
2.37068408900153
2.3706841590102
2.37068418770778
2.3706841816633
2.37068416696279
2.3706841804998
2.37068425975593
2.37068443378576
2.37068471503991
2.37068509556001
2.37068554578694
2.37068601838214
2.37068645798722
2.37068680715421
2.37068702144962
2.37068707361091
2.37068696001128
2.3706867000504
2.3706863329283
2.3706859089246
2.37068547981915
2.37068508923752
2.37068476646102
2.37068451957022
2.37068433966675
2.37068420522087
2.37068408822294
2.37068396435094
2.37068382062716
2.37068366120216
2.37068350684222
2.37068339171435
2.37068335767273
2.37068344504187
2.37068368153325
2.37068407781386
2.3706846254176
2.37068529585187
2.37068604368477
2.37068681233128
2.37068754129791
2.37068817275147
2.37068865761504
2.37068896096728
2.37068905929681
2.37068894254873
2.3706886152391
2.37068809813701
2.37068742544438
2.3706866441766
2.37068581367803
2.37068500137589
2.37068427448297
2.37068370193011
2.37068333545577
2.37068320795737
2.37068332620877
2.37068366884473
2.37068418862228
2.37068481959584
2.37068548673098
2.37068611596302
2.3706866440745
2.37068702524902
2.37068723318244
2.37068726476971
2.37068713170849
2.37068685840712
2.37068647517969
2.37068601672185
2.37068551886259
2.37068501837391
2.37068455336379
2.37068416234526
2.37068388227667
2.37068374446059
2.37068376917376
2.37068396025238
2.3706843016495
2.37068475695435
2.37068527353852
2.37068578928877
2.37068624244947
2.37068658207118
2.37068677653734
2.37068681641731
2.37068671732479
2.37068651450035
2.37068625929395
2.37068600632643
2.37068580628451
2.3706856981245
2.37068570562
2.37068527487148
2.37068550117432
2.37068584256839
2.37068625999949
2.37068670355463
2.37068711716108
2.37068744340819
2.37068762791441
2.37068762467337
2.37068740217537
2.37068695616418
2.37068629509483
2.37068546154644
2.37068452314372
2.37068356665741
2.3706826893353
2.37068198752095
2.37068154372519
2.37068141460835
2.37068162203515
2.37068214750626
2.37068293477439
2.37068389298076
2.37068490714969
2.37068585066609
2.37068659934511
2.37068704596763
2.37068711283713
2.37068676271362
2.37068600315415
2.37068489071647
2.37068352774145
2.37068205385497
2.37068063284958
2.37067943656897
2.3706786253236
2.37067832917102
2.37067863142111
2.37067955617426
2.37068106267846
2.37068304717408
2.37068535218468
2.37068778243206
2.3706901247904
2.37069216967869
2.37069373288607
2.37069467417604
2.37069491064924
2.37069442204328
2.37069325562273
2.37069151683399
2.37068936129565
2.37068697818824
2.37068457090287
2.37068233778792
2.37068045226459
2.37067904574921
2.37067819533694
2.3706779192979
2.37067818137921
2.37067888335873
2.37067991493441
2.37068113756019
2.37068242100975
2.37068365726525
2.37068477033535
2.37068572002598
2.37068649844398
2.37068712065089
2.37068761172021
2.37068799476875
2.37068828141301
2.37068846787663
2.37068853820813
2.37068846870853
2.37068824046916
2.37068784824465
2.37068730920393
2.37068666532782
2.37068598022237
2.37068533010838
2.37068479071226
2.37068442322394
2.37068426169204
2.370684308084
2.37068452890548
2.37068486233924
2.37068522994316
2.37068555215104
2.37068576427384
2.37068582937188
2.37068574666317
2.37068554923865
2.37068529889614
2.37068507192199
2.37068494211761
2.37068496498911
2.37068516489101
2.37068552929624
2.37068601048418
2.37068653530461
2.37068702028019
2.37068739048232
2.37068759320434
2.37068761124383
2.37068746175717
2.37068719409889
2.37068687569204
2.37068657360783
2.37068633955388
2.37068619677343
2.37068613474482
2.37068611465492
2.3706860820197
2.37068598232488
2.37068577980964
2.37068547922202
2.37068511503816
2.37068476241056
2.37068451426398
2.37068446041347
2.37068466235871
2.37068513369176
2.37068582971215
2.37068664968039
2.37068745255801
2.37068808309266
2.37068840256584
2.37068831894208
2.37068780758319
2.37068692008235
2.37068577686894
2.37068454717201
2.37068341923893
2.3706825677681
2.37068212495251
2.37068216059632
2.37068267476872
2.37068360163257
2.37068482381219
2.37068619330225
2.37068755089731
2.37068875413737
2.37068968328501
2.37069025395233
2.37069041500084
2.37069020068755
2.37068961595091
2.37068874909503
2.37068770303309
2.37068659667147
2.37068555429827
2.37068468877756
2.37068408514419
2.37068378633228
2.37068378424419
2.37068401892905
2.3706843868247
2.37068475824778
2.37068500227569
2.37068501310742
2.37068473182816
2.37068416070897
2.37068336583516
2.37068246528456
2.37068160867085
2.37068094966452
2.37068061786648
2.37068069799672
2.37068121597973
2.37068213752554
2.37068337780905
2.37068481918377
2.37068633220841
2.37068779538918
2.37068910972659
2.37069020595121
2.37069104360051
2.37069160426137
2.37069188195559
2.37069187586221
2.37069158488711
2.37069101086637
2.37069015885451
2.37068904751224
2.37068771964632
2.37068624936558
2.37068474072382
2.37068332144522
2.3706821282649
2.37068128660553
2.37068088828932
2.37068097217379
2.37068151160624
2.37068241285779
2.37068352478625
2.3706846605718
2.37068562782044
2.37068626188875
2.37068645586092
2.37068618131351
2.37068549576004
2.37068453520389
2.3706834926091
2.37068258516632
2.37068201885824
2.37068194788434
2.37068245812581
2.37068354191948
2.37068510403371
2.37068697462604
2.37068893534133
2.37069075071338
2.37069220190592
2.37069312057957
2.37069340721919
2.37069304260872
2.37069208938121
2.37069067792495
2.3706889849636
2.37068721089801
2.37068554805454
2.37068415426851
2.37068313396356
2.37068252777614
2.37068231372939
2.3706824164613
2.37068272606118
2.37068312081529
2.37068349201179
2.37068376202887
2.37068389556668
2.37068390151463
2.37068382497239
2.37068373312937
2.37068369600775
2.37068376875775
2.37068397836943
2.37068431811416
2.37068475012873
2.37068521529823
2.37068564767398
2.37068598986882
2.37068620311503
2.3706862859889
2.37068625022473
2.37068613738956
2.37068599541578
2.37068586816293
2.37068578453423
2.37068575227667
2.37068575801851
2.37068577265636
2.37068576137023
2.37068569450001
2.37068555801765
2.37068535819534
2.37068512110057
2.37068488612281
2.3706846952783
2.37068458157503
2.37068455869024
2.37068461536801
2.37068471663907
2.37068481153622
2.37068484673721
2.37068478269359
2.37068460575171
2.37068433657247
2.37068403106446
2.37068377175808
2.37068365092668
2.37068374969393
2.37068411636734
2.37068475325507
2.37068560771952
2.37068657663206
2.37068752107942
2.37068829068014
2.37068875135192
2.37068881181658
2.37068844333078
2.37068768621477
2.37068664676524
2.37068548075437
2.37068436599791
2.37068347140078
2.37068292789417
2.37068280640495
2.37068310719128
2.37068375890686
2.370684635339
2.3706855815661
2.37068643913851
2.37068707401939
2.37068739830302
2.37068738127985
2.37068705202836
2.37068648701476
2.3706857930168
2.37068508592098
2.37068446987848
2.37068402020495
2.37068377373596
2.3706837269749
2.37068384187919
2.3706840587175
2.37068430957387
2.37068453290072
2.37068468495632
2.37068474626245
2.37068472348456
2.37068464619281
2.37068455666103
2.37068450108974
2.37068451790939
2.37068463128303
2.37068484398706
2.37068513703326
2.37068547621187
2.37068581604681
2.37068611182836
2.37068632567899
2.37068643559809
2.37068643525134
2.37068633564587
2.37068615964
2.37068593456957
2.37068568358042
2.37068542441968
2.37068516121127
2.37068489046349
2.37068460310092
2.37068429134357
2.37068395500132
2.37068360620689
2.3706832730192
2.37068299546762
2.37068281969196
2.37068279059326
2.3706829426775
2.37068329124224
2.37068382944418
2.37068452842701
2.37068533966348
2.37068620116814
2.37068704522899
2.37068780641072
2.37068842825773
2.37068886795773
2.37068910226968
2.37068911926461
2.37068892451391
2.37068853621125
2.37068798551316
2.3706873149262
2.37068657488561
2.37068582171542
2.37068511392883
2.37068450749831
2.37068405033453
2.37068377557261
2.37068369754568
2.37068380978282
2.37068408539577
2.37068448142209
2.37068494609307
2.37068542694848
2.37068587683905
2.37068626045327
2.37068655401171
2.37068674855662
2.37068683883214
2.37068682718639
2.37068671815432
2.37068651394414
2.37068621905076
2.37068584268733
2.37068540267628
2.37068492878709
2.37068446302066
2.37068405640231
2.37068376191915
2.37068362491569
2.37068367303228
2.37068390897034
2.37068430719141
2.37068481658811
2.37068536791539
2.37068588542298
2.37068630031012
2.37068656273007
2.37068664902944
2.3706865651621
2.37068634337133
2.37068603888729
2.37068571436003
2.3706854323161
2.37068524483462
2.37068518733557
2.37068501115176
2.37068525458316
2.37068561810518
2.37068605988266
2.37068652812219
2.37068696584766
2.37068731586219
2.37068752530097
2.37068755019497
2.37068736054084
2.37068694782431
2.37068632188472
2.37068552050018
2.37068460625979
2.37068366239643
2.37068278517941
2.3706820730669
2.37068161375471
2.3706814712541
2.37068167489335
2.37068221205889
2.37068302712777
2.37068402556725
2.37068508356531
2.37068606268689
2.37068682720247
2.37068726196047
2.37068728771713
2.37068687379595
2.37068604111587
2.37068486449341
2.37068346509682
2.37068199731803
2.3706806315628
2.37067953515719
2.37067885249292
2.37067868981102
2.37067910195993
2.37068008456521
2.37068157590924
2.3706834629138
2.37068559278141
2.37068778894262
2.3706898685849
2.37069165946956
2.37069301539619
2.37069382825407
2.37069403612972
2.37069362430843
2.37069263015024
2.37069113414682
2.37068925572597
2.37068714325075
2.37068496152525
2.3706828783594
2.3706810502973
2.37067960793088
2.37067864382486
2.37067820474687
2.37067828939505
2.37067883477994
2.3706797606337
2.37068094745211
2.37068226843556
2.3706836054506
2.37068486122904
2.37068596741887
2.37068688722038
2.37068761148811
2.37068814964149
2.37068851980359
2.37068873915562
2.37068881796768
2.37068875695012
2.3706885513502
2.37068819786908
2.37068770245802
2.37068708761961
2.37068639548708
2.37068568588128
2.37068502895455
2.37068449392137
2.3706841362846
2.37068398531694
2.37068404058275
2.37068426725512
2.37068460327175
2.37068497073661
2.37068529076043
2.3706854989382
2.37068555798604
2.37068546509018
2.37068525167942
2.37068497639988
2.37068471205287
2.37068452985316
2.37068448379007
2.3706846002069
2.37068486867556
2.3706852503682
2.37068568099974
2.37068608929838
2.37068641351282
2.37068660265646
2.3706866478457
2.3706865608769
2.37068638615688
2.37068618067043
2.37068599693341
2.37068587241481
2.3706858196132
2.37068582308199
2.37068584395436
2.37068583239589
2.37068574215347
2.37068554638172
2.37068525603563
2.37068490735239
2.37068457189152
2.37068433531649
2.37068427736357
2.37068445070286
2.37068486418707
2.37068547418891
2.37068618797779
2.37068687848981
2.37068740771081
2.37068765422761
2.37068753910217
2.37068704461625
2.37068622127836
2.37068518094031
2.37068407856737
2.37068308564199
2.37068236071594
2.37068202326468
2.37068213471239
2.37068269286082
2.3706836334809
2.37068484369712
2.37068618091207
2.3706874941949
2.37068864372124
2.3706895170745
2.37069003873214
2.37069017337465
2.37068993352197
2.37068936249194
2.37068854135924
2.37068757305254
2.37068657222556
2.37068565222231
2.37068491038648
2.37068441404507
2.3706841896503
2.3706842174952
2.37068443398954
2.37068474143789
2.37068502480812
2.37068517373612
2.37068510454012
2.37068477743607
2.37068420686197
2.37068346036341
2.37068264527806
2.37068189567247
2.37068134470657
2.37068109818198
2.3706812225242
2.37068173313653
2.37068259412588
2.37068372783263
2.37068503074683
2.37068639153947
2.370687707236
2.37068889456821
2.37068989516392
2.37069067374179
2.37069121142545
2.3706914975897
2.37069152403285
2.37069128319311
2.37069076831838
2.37068997993036
2.37068893437561
2.37068767412203
2.37068627344663
2.37068483734526
2.37068349341439
2.37068237622442
2.37068160635934
2.37068126843988
2.37068139253487
2.37068194333849
2.37068282013615
2.37068386888102
2.37068490557858
2.37068574703105
2.37068624342541
2.37068630620944
2.37068592590178
2.37068517619003
2.37068420319733
2.37068320143495
2.37068238055236
2.37068192900087
2.37068198333333
2.3706826026992
2.37068376083689
2.37068534875666
2.37068719228447
2.3706890792966
2.37069078985055
2.37069212634705
2.3706929416035
2.37069315545379
2.37069276235999
2.37069182657918
2.37069047214475
2.37068886240545
2.37068717819593
2.37068559192197
2.37068424570637
2.37068323530835
2.3706826012173
2.37068232939838
2.37068235885193
2.37068259535111
2.37068293305926
2.37068327305359
2.37068354096694
2.37068369791692
2.37068374363332
2.37068371168129
2.37068365804805
2.37068364532526
2.37068372669833
2.37068393335877
2.37068426719523
2.37068470086286
2.3706851844816
2.37068565712593
2.37068606135372
2.37068635480319
2.37068651868317
2.37068655733942
2.37068649612376
2.37068637262298
2.37068622617926
2.37068608762092
2.3706859727747
2.37068588104835
2.37068579850649
2.37068570494507
2.37068558273306
2.37068542432255
2.37068523689834
2.37068504091937
2.37068486550432
2.37068473944558
2.37068468223877
2.37068469588682
2.37068476167513
2.37068484280258
2.37068489173284
2.37068486325198
2.37068472762623
2.3706844820778
2.37068415633905
2.37068381107769
2.37068352916031
2.37068339994397
2.37068349973548
2.37068387267818
2.37068451863285
2.3706853859952
2.37068637608131
2.37068735710932
2.37068818564996
2.3706887315804
2.37068890188385
2.3706886587837
2.37068802839553
2.3706870974511
2.37068600150039
2.37068490181005
2.37068395840098
2.37068330350744
2.37068301999827
2.3706831284371
2.37068358435913
2.37068428882096
2.37068510808614
2.37068589655581
2.37068652246333
2.37068688977609
2.370686952248
2.37068671855355
2.37068624679059
2.37068562981497
2.37068497686886
2.37068439361724
2.37068396329312
2.37068373428731
2.37068371472495
2.37068387495192
2.37068415674667
2.37068448735149
2.37068479466664
2.37068502029748
2.37068512973927
2.37068511671073
2.37068500265597
2.37068482953396
2.37068465033016
2.37068451675075
2.37068447088718
2.37068453517967
2.37068471024338
2.37068497701306
2.37068529942377
2.37068563605797
2.37068594392517
2.37068618871094
2.3706863481135
2.37068641359614
2.3706863883577
2.3706862824662
2.37068610721705
2.37068587252535
2.37068558417195
2.37068524455192
2.37068485625568
2.37068442652544
2.37068397185424
2.37068351964742
2.37068310945067
2.37068278821387
2.37068260377084
2.37068259771039
2.3706827972488
2.37068320841505
2.37068381435097
2.37068457692415
2.37068544018661
2.37068633736022
2.37068719887476
2.37068796004963
2.37068856729346
2.37068898253774
2.3706891856078
2.37068917122283
2.37068894976982
2.37068854513286
2.37068799263377
2.37068733695371
2.37068662907419
2.37068592264196
2.37068527010073
2.3706847184901
2.3706843040411
2.37068404868735
2.37068395751118
2.37068401903261
2.37068420738059
2.37068448729927
2.37068482043959
2.37068517093231
2.37068551011113
2.37068581838584
2.37068608442613
2.37068629871364
2.37068645729323
2.37068655112654
2.37068656862873
2.3706864963055
2.37068632263826
2.37068604420229
2.37068567068346
2.37068522866239
2.37068476201371
2.37068432724669
2.37068398498817
2.37068378890511
2.37068377447104
2.37068395067368
2.37068429654638
2.37068476269657
2.3706852802696
2.37068577193657
2.37068616622433
2.37068641016186
2.37068647802388
2.3706863744045
2.37068613156089
2.37068580537529
2.37068546139204
2.37068516463814
2.37068496979748
2.37068491360939
2.37068473318101
2.37068500069897
2.37068538905069
2.37068585425476
2.37068634379487
2.37068680151823
2.37068717259182
2.37068740762344
2.37068746600912
2.37068731948764
2.37068695677201
2.37068638561923
2.37068563709635
2.37068476622349
2.37068384996939
2.37068298149979
2.3706822604023
2.37068177985112
2.3706816124988
2.3706817972376
2.370682329339
2.37068315624439
2.37068418055223
2.37068526988603
2.37068627349921
2.3706870432433
2.37068745525058
2.37068742888562
2.37068693990418
2.37068602558345
2.37068478145587
2.37068334997239
2.37068190183781
2.37068061410459
2.37067964797392
2.37067912816538
2.37067913153673
2.37067967843322
2.37068073084392
2.37068220241217
2.37068396950662
2.37068588577105
2.37068779809493
2.37068956112863
2.37069104804797
2.37069215847442
2.37069282295572
2.37069300384963
2.37069269433849
2.37069191725842
2.37069072313384
2.37068918711369
2.37068740800316
2.37068550377472
2.37068360524852
2.37068184823754
2.37068036244885
2.37067925855734
2.37067861601889
2.37067847310634
2.3706788182785
2.37067959872217
2.37068072006724
2.37068206240754
2.37068349655831
2.37068489979356
2.37068617246081
2.37068724490309
2.37068807840399
2.37068866419111
2.37068901461793
2.37068915341429
2.37068910591022
2.3706888935769
2.37068853294908
2.37068803881494
2.37068742977406
2.37068673415493
2.37068599366665
2.37068526296609
2.37068460450129
2.37068407930174
2.37068373582201
2.37068359840271
2.37068366379244
2.37068389657563
2.3706842354887
2.37068460412877
2.370684925078
2.37068513465645
2.37068519512289
2.37068510169871
2.37068488244943
2.37068459152772
2.37068429693987
2.37068406576911
2.37068394990729
2.37068397556025
2.37068413891653
2.37068440751031
2.37068472874132
2.37068504708755
2.37068532180309
2.37068548633962
2.3706855597498
2.37068554512075
2.3706854769337
2.37068539942854
2.37068534888198
2.37068534722966
2.3706853953006
2.37068547159084
2.37068553814136
2.37068555137777
2.37068547404509
2.37068528675296
2.37068501563769
2.37068468932532
2.37068437646261
2.37068415331733
2.37068408691235
2.37068421913496
2.37068455361534
2.3706850492743
2.37068562473911
2.37068617136751
2.3706865735227
2.37068673111969
2.37068658168979
2.37068611504521
2.37068537899766
2.37068447319346
2.37068353346069
2.37068270918064
2.37068213797121
2.37068192316852
2.37068211734263
2.37068271558001
2.37068365724039
2.37068483683591
2.37068612096661
2.37068736766853
2.37068844575689
2.37068925035891
2.3706897133821
2.37068980922406
2.37068955427959
2.37068900343528
2.37068824082258
2.37068736907119
2.3706864963714
2.37068572262017
2.37068512667112
2.3706847553009
2.37068461613716
2.37068467674346
2.37068487003148
2.37068510618204
2.37068528858446
2.37068533181197
2.37068517848937
2.37068481113001
2.37068425741765
2.37068358593713
2.37068289069452
2.37068228480742
2.3706818750304
2.37068173799047
2.37068191770294
2.37068241670729
2.37068319740797
2.37068419146948
2.37068531338402
2.37068647471418
2.37068759589837
2.37068861352472
2.37068948295105
2.3706901757834
2.37069067363388
2.37069096110888
2.37069102196522
2.37069083951213
2.37069039870118
2.37068969369466
2.37068873750427
2.3706875710058
2.37068626781932
2.37068493216468
2.37068368951958
2.37068266999641
2.37068198732691
2.37068171713662
2.37068187946627
2.37068242982345
2.37068326144355
2.3706842195638
2.37068512633597
2.3706858118571
2.37068614547961
2.37068606075015
2.3706855699608
2.3706847641045
2.37068379853089
2.37068286641782
2.37068216515384
2.37068186220906
2.37068206604735
2.37068280928562
2.37068404205898
2.37068564125444
2.37068743032109
2.37068920725492
2.37069077306158
2.37069195756637
2.37069264087214
2.37069276634612
2.37069234347088
2.37069143868122
2.37069016665672
2.37068867241837
2.37068711185762
2.37068563225163
2.37068435587144
2.37068336751107
2.3706827075255
2.37068237181437
2.37068231646499
2.37068246881977
2.37068274091206
2.37068304671567
2.37068331591982
2.3706835049445
2.37068360191348
2.37068362548448
2.37068361719289
2.37068362982518
2.37068371406203
2.37068390605052
2.3706842187064
2.37068463867225
2.37068512906739
2.37068563747407
2.37068610811949
2.37068649282888
2.37068676002202
2.37068689773937
2.37068691397383
2.37068683207825
2.37068668378312
2.37068649983755
2.3706863037656
2.37068610876817
2.37068591808641
2.37068572883936
2.37068553762803
2.37068534565987
2.37068516136293
2.3706849996114
2.37068487832354
2.37068481140384
2.37068480292661
2.37068484226841
2.37068490317302
2.37068494749473
2.37068493296145
2.37068482443701
2.37068460467617
2.37068428328304
2.37068389963088
2.37068351893737
2.37068322310677
2.37068309622731
2.37068320738604
2.37068359471639
2.37068425432826
2.37068513591728
2.37068614695602
2.37068716502054
2.37068805599877
2.37068869541474
2.37068898912818
2.37068888986433
2.37068840605128
2.37068760174041
2.37068658790509
2.37068550556595
2.37068450373052
2.37068371593647
2.37068323924574
2.37068311903657
2.37068334271904
2.37068384342966
2.37068451376878
2.37068522402533
2.37068584534119
2.37068627184776
2.37068643801677
2.37068632820456
2.37068597743337
2.37068546120955
2.37068488024165
2.37068434115171
2.37068393646182
2.37068372852232
2.37068373982747
2.37068395140262
2.37068430851299
2.37068473394522
2.37068514385137
2.37068546316641
2.37068563921255
2.37068565073943
2.37068550810754
2.37068525134965
2.37068494017518
2.37068464090153
2.37068441542309
2.3706843091045
2.37068434477433
2.370684521374
2.37068481511715
2.37068518734082
2.37068559060505
2.37068597755106
2.37068630741603
2.37068654969166
2.37068668514898
2.37068670449425
2.37068660543762
2.37068639073165
2.37068606704022
2.37068564463241
2.37068514028889
2.37068457812388
2.37068399313366
2.37068342984511
2.37068294010678
2.37068257782136
2.37068239198049
2.37068241961146
2.37068267895492
2.37068316498997
2.37068384912242
2.37068468252165
2.37068560103
2.37068653270288
2.37068740609748
2.37068815767421
2.37068873746708
2.37068911290227
2.3706892690711
2.37068920723919
2.37068894485118
2.37068851250163
2.37068795081332
2.37068730804209
2.37068663589637
2.37068598491369
2.37068540039219
2.37068491760121
2.37068455936656
2.37068433350446
2.37068423350334
2.37068424115619
2.37068433134238
2.37068447750484
2.37068465677575
2.37068485349417
2.37068506025847
2.370685277095
2.37068550995551
2.37068574228312
2.37068597939225
2.37068619809251
2.37068636966517
2.37068646181439
2.37068644504411
2.3706863008063
2.37068602862908
2.37068564977926
2.37068520831505
2.37068476446382
2.37068438488162
2.37068413038524
2.37068404396243
2.37068414139246
2.37068440732389
2.370684796537
2.37068524333707
2.37068567199722
2.37068601150259
2.37068620897284
2.37068623798369
2.3706861026674
2.37068583601532
2.37068549306579
2.3706851400113
2.37068484252502
2.37068465540278
2.37068461451173
2.37068453495982
2.37068482664102
2.37068523056134
2.37068570288214
2.37068619326643
2.37068664967857
2.37068702327198
2.37068727124783
2.37068735863585
2.37068726020857
2.37068696296614
2.3706864699726
2.37068580319417
2.37068500683913
2.37068414768567
2.37068331186752
2.37068259685462
2.37068209916697
2.37068189944166
2.3706820467856
2.37068254587276
2.37068335001877
2.37068436211662
2.37068544454584
2.37068643746283
2.370687182945
2.37068755047914
2.37068745927474
2.37068689307367
2.37068590487907
2.37068461075001
2.37068317301786
2.37068177656124
2.370680602212
2.37067980134119
2.37067947595086
2.37067966877799
2.37068036173626
2.3706814821102
2.37068291839314
2.37068453752469
2.37068620280942
2.37068778912939
2.3706891935809
2.37069034028219
2.37069117964868
2.37069168426733
2.37069184295398
2.37069165515535
2.37069112875148
2.37069027977093
2.37068913504189
2.37068773828487
2.37068615513674
2.37068447526576
2.37068281090727
2.37068128877334
2.37068003719028
2.37067917011287
2.37067876972586
2.37067887286867
2.37067946429375
2.37068047663368
2.37068179958666
2.37068329538211
2.3706848161478
2.3706862318957
2.37068744039211
2.37068837140478
2.3706889969143
2.37068932280479
2.37068937918805
2.37068920591488
2.37068884589158
2.37068833760525
2.37068771409475
2.37068700630513
2.37068624756388
2.37068547763356
2.37068474400026
2.37068409924283
2.37068359430273
2.37068326925027
2.37068314388146
2.37068321248751
2.37068344104204
2.37068377172221
2.37068413243121
2.37068444972272
2.37068466248101
2.37068473326893
2.37068465493955
2.37068445051136
2.37068416725181
2.37068386553632
2.37068360561661
2.3706834350916
2.37068337992217
2.37068344079892
2.37068359526512
2.37068380595505
2.37068403107653
2.37068423381948
2.37068438525298
2.37068448594429
2.37068454851183
2.37068459447894
2.37068465034502
2.37068473601071
2.37068485732636
2.37068500344992
2.37068514773954
2.37068525425893
2.37068528735979
2.37068522192697
2.37068505165806
2.37068479928408
2.37068450220892
2.37068421863284
2.37068401042266
2.37068392970944
2.37068400656302
2.37068423899496
2.37068459144542
2.37068499774614