/*--------------------------------*- C++ -*----------------------------------*\
| =========                 |                                                 |
| \\      /  F ield         | foam-extend: Open Source CFD                    |
|  \\    /   O peration     | Version:     4.0                                |
|   \\  /    A nd           | Web:         http://www.foam-extend.org         |
|    \\/     M anipulation  |                                                 |
\*---------------------------------------------------------------------------*/
FoamFile
{
    version     2.0;
    format      ascii;
    class       volScalarField;
    location    "1";
    object      rho;
}
// * * * * * * * * * * * * * * * * * * * * * * * * * * * * * * * * * * * * * //

dimensions      [1 -3 0 0 0 0 0];

internalField   nonuniform List<scalar> 
160000
(
2.37059516637891
2.37059534737839
2.37059559171293
2.3705958703802
2.37059614790419
2.37059638572786
2.37059654509408
2.37059659081535
2.37059649683801
2.37059624933312
2.37059585095365
2.37059531976047
2.3705946938062
2.37059402614881
2.37059337882579
2.37059281537634
2.37059239294323
2.370592154524
2.37059212299486
2.37059229875662
2.37059265771482
2.37059315966833
2.37059374698963
2.37059435351612
2.37059491012062
2.37059535006767
2.37059561402665
2.37059565498091
2.37059544448337
2.37059497481094
2.37059426582242
2.37059336643475
2.37059235463779
2.37059133382478
2.3705904246923
2.37058975271595
2.3705894325194
2.37058955203859
2.37059015836758
2.37059124631889
2.37059275457591
2.37059456899495
2.3705965332013
2.37059846522344
2.37060017730307
2.37060149820583
2.37060229392094
2.37060248313694
2.37060204516506
2.37060102633747
2.37059952995044
2.37059770598069
2.37059573223257
2.37059379355468
2.37059206193171
2.37059067690459
2.37058973067708
2.37058925987837
2.3705892453851
2.37058962103937
2.37059028589699
2.37059112568586
2.37059202705563
2.37059289586962
2.37059366758034
2.37059431128705
2.37059482771585
2.37059524031373
2.37059558316007
2.37059588845438
2.37059617608235
2.37059644771869
2.37059668676343
2.37059686423966
2.37059694549103
2.3705969024939
2.37059672044361
2.37059640629537
2.37059598908593
2.37059551641794
2.37059504687392
2.37059463943275
2.3705943427021
2.37059418580832
2.37059417300136
2.37059428576084
2.37059448488426
2.37059471722042
2.37059492814353
2.37059507346308
2.37059512757651
2.37059509091907
2.37059498447569
2.37059485094151
2.37059474261104
2.37059471057778
2.37059479298314
2.37059500618494
2.37059533962297
2.37059575685857
2.37059620229309
2.37059661179976
2.37059692585368
2.37059710138579
2.37059712098149
2.37059699490081
2.37059675786709
2.37059646058841
2.370596157281
2.37059589268752
2.37059569141151
2.37059555322825
2.37059545580447
2.37059536391203
2.37059523806203
2.37059505230585
2.37059480721287
2.37059452676489
2.3705942634184
2.37059408483565
2.37059405786134
2.37059422873909
2.37059460905968
2.37059516683768
2.37059582745068
2.37059648455636
2.37059701934119
2.37059732403782
2.37059732448822
2.37059699636979
2.37059637260898
2.37059553895764
2.3705946193584
2.37059375396534
2.37059307511616
2.37059268551504
2.37059264314462
2.37059295468249
2.37059357822582
2.37059443299193
2.37059541351531
2.37059640570995
2.3705973010393
2.37059800840884
2.37059846094694
2.37059861826219
2.37059847570851
2.37059804914829
2.37059738955551
2.37059657119634
2.37059568476332
2.37059483035897
2.37059410308416
2.3705935797229
2.3705933057548
2.37059328593871
2.37059348125085
2.37059381351368
2.3705941781436
2.37059446401117
2.37059457525189
2.37059445098838
2.37059407894221
2.37059349992972
2.37059280116265
2.37059210001167
2.37059152296358
2.37059118259014
2.37059115852115
2.37059148473173
2.3705921457988
2.37059308233276
2.37059420380145
2.37059540498423
2.37059658258854
2.37059764845034
2.37059853736442
2.37059920841847
2.3705996419433
2.37059983335939
2.37059978770411
2.37059950751487
2.37059901015468
2.37059830850666
2.37059742523214
2.37059639795129
2.37059528215693
2.37059415162507
2.37059309433425
2.37059220383658
2.37059156687304
2.37059124868136
2.37059127990042
2.37059164742058
2.37059229253303
2.37059311507477
2.37059398652744
2.37059476919116
2.37059533871179
2.37059560571737
2.37059553226143
2.37059514021524
2.37059450968311
2.37059376755869
2.37059306739629
2.37059256276358
2.37059238246023
2.37059260708528
2.37059325570617
2.37059428052823
2.37059557425943
2.37059698522879
2.37059833955554
2.37059946706087
2.37060022833673
2.37060053293504
2.37060035207293
2.37059972006748
2.37059872851239
2.37059750994084
2.37059621853635
2.37059500508488
2.37059399458767
2.37059326970697
2.37059286199
2.37059275249041
2.37059287924432
2.37059315374311
2.37059347936373
2.37059377150596
2.37059397185676
2.37059405659461
2.37059403625704
2.37059394850971
2.37059384597642
2.37059378120234
2.37059379358336
2.37059389979955
2.37059409146666
2.37059433909223
2.37059460007106
2.3705948305633
2.37059499694269
2.37059508323644
2.37059509443619
2.37059505360283
2.37059499527563
2.37059495499512
2.37059495959692
2.37059501970878
2.37059512696727
2.37059525600281
2.37059537067331
2.37059543338287
2.37059541446596
2.37059530106362
2.37059510056533
2.37059484012256
2.37059456043668
2.37059430603839
2.37059411558152
2.37059401274507
2.3705939994143
2.37059405577696
2.37059414592893
2.37059422760255
2.37059426444781
2.37059423667319
2.37059414880154
2.37059403096792
2.37059393406613
2.37059391877192
2.37059403690005
2.37059432232967
2.37059477462361
2.37059535447051
2.37059598683072
2.37059657172753
2.37059700341626
2.37059719130453
2.37059707985218
2.37059666252081
2.37059598469791
2.37059513970012
2.37059425383294
2.37059346343311
2.3705928904976
2.3705926210178
2.37059268981569
2.37059307521556
2.37059370305008
2.37059446203766
2.37059522696485
2.37059587937638
2.37059632768818
2.3705965211219
2.37059645318642
2.37059616303623
2.37059571846377
2.37059520240457
2.37059469650524
2.37059426672076
2.37059395415699
2.37059377170138
2.37059370616694
2.37059372547632
2.37059378997954
2.37059386204635
2.37059391455191
2.37059393607352
2.37059393153715
2.37059392052158
2.37059393112773
2.37059399104239
2.37059412214039
2.3705943338781
2.3705946201947
2.37059495886243
2.37059531429674
2.37059564492885
2.37059590756617
2.37059606866353
2.37059610747498
2.37059602114921
2.37059582438334
2.37059554693803
2.37059522682998
2.3705949030792
2.37059460854387
2.37059436532634
2.37059417965032
2.37059404491631
2.37059394499674
2.37059385885431
2.37059376812044
2.37059366252535
2.37059354482778
2.37059343062606
2.37059334566049
2.37059332122531
2.37059338748888
2.3705935652114
2.37059386251152
2.3705942731752
2.37059477594742
2.37059533665281
2.37059591264215
2.37059645852177
2.37059693108355
2.37059729370857
2.37059752025361
2.3705975930745
2.37059750474417
2.37059725873267
2.37059687055867
2.3705963658523
2.37059578073587
2.37059515728088
2.37059454761241
2.37059400382429
2.3705935752275
2.37059330124732
2.37059320637861
2.37059329573257
2.37059355322065
2.37059394330471
2.37059441639109
2.37059491622455
2.37059538729932
2.37059578220986
2.37059606669744
2.37059622117017
2.37059624339814
2.37059614200097
2.37059593550439
2.37059564674782
2.37059530191109
2.37059492795923
2.37059455250481
2.37059420416377
2.37059391186491
2.37059370340075
2.37059360222281
2.37059362329021
2.37059376917364
2.37059402767642
2.37059437139974
2.37059476071495
2.37059514881436
2.37059548917309
2.3705957434433
2.37059588788682
2.37059591554299
2.37059583839227
2.37059568317787
2.37059548878044
2.37059529651585
2.3705951447135
2.37059506283252
2.37059506847849
2.37059474534073
2.37059491701752
2.37059517525384
2.37059549045196
2.37059582496454
2.37059613660061
2.37059638216382
2.37059652074531
2.37059651802319
2.37059635064595
2.3705960154711
2.3705955189065
2.37059489305384
2.37059418877161
2.37059347120488
2.37059281327907
2.37059228724625
2.37059195495104
2.37059185875754
2.37059201492047
2.37059240939198
2.37059299982988
2.37059371801588
2.3705944776679
2.37059518386656
2.37059574361634
2.37059607663119
2.37059612480544
2.37059586043002
2.37059528945275
2.3705944545189
2.37059343229069
2.37059232756436
2.37059126322074
2.37059036790963
2.37058976169775
2.3705895418607
2.37058977066279
2.3705904659614
2.37059159701446
2.37059308588482
2.37059481445287
2.37059663641252
2.3705983921732
2.3705999247014
2.37060109595917
2.37060180087436
2.37060197723089
2.37060160988049
2.37060073467469
2.37059943120919
2.37059781621604
2.37059603099566
2.37059422727128
2.37059255331365
2.37059113937065
2.370590084473
2.37058944673512
2.37058923983845
2.37058943648055
2.37058996290428
2.37059073640158
2.37059165317067
2.37059261557808
2.37059354256263
2.37059437703878
2.37059508881956
2.37059567205861
2.3705961381767
2.37059650608474
2.37059679322824
2.37059700841318
2.3705971488377
2.37059720248474
2.37059715144378
2.37059698136412
2.37059668812494
2.37059628441394
2.37059580152326
2.37059528700034
2.37059479796034
2.37059439130519
2.37059411316186
2.37059398920896
2.37059402104924
2.37059418422512
2.37059443299775
2.37059470838207
2.37059495049435
2.37059511074225
2.37059516127761
2.37059510122676
2.37059495511834
2.37059476900782
2.37059459991577
2.37059450311015
2.37059452018271
2.37059466960872
2.37059494216993
2.37059530226849
2.37059569525375
2.37059605864991
2.37059633629367
2.37059648863759
2.37059650281237
2.37059639156256
2.3705961918347
2.37059595398403
2.3705957282342
2.37059555331591
2.37059544665524
2.3705954004244
2.37059538554448
2.37059536126742
2.37059528683084
2.3705951354416
2.37059491057526
2.37059463800776
2.37059437391655
2.37059418787694
2.37059414721632
2.37059429798956
2.37059465077553
2.37059517203967
2.3705957862244
2.37059638801183
2.37059686105135
2.37059710130552
2.37059703966286
2.37059665749906
2.37059599333499
2.3705951373093
2.37059421615843
2.37059337092035
2.3705927325693
2.37059240030153
2.37059242655443
2.37059281143616
2.37059350554886
2.37059442093753
2.37059544638835
2.37059646214616
2.37059736208826
2.37059805632535
2.37059848168073
2.37059860054066
2.37059843864579
2.37059800005789
2.37059735090547
2.37059656750503
2.37059573956056
2.37059496064631
2.37059431415695
2.37059386347557
2.37059364071886
2.37059363970965
2.3705938155038
2.3705940905831
2.37059436793448
2.37059454963433
2.37059455652829
2.37059434454489
2.37059391549626
2.37059331906484
2.37059264385178
2.37059200202449
2.37059150877605
2.37059126118635
2.37059132259637
2.37059171234829
2.37059240466352
2.37059333585422
2.37059441753524
2.37059555188235
2.37059664935641
2.37059763465639
2.37059845491696
2.37059908174225
2.37059950099291
2.37059970827309
2.37059970297262
2.3705994843803
2.37059905386342
2.37059841519967
2.37059758220741
2.37059658680266
2.37059548456851
2.37059435340857
2.37059328903863
2.37059239397232
2.37059176230458
2.37059146300129
2.37059152530591
2.37059192928086
2.37059260465776
2.37059343810544
2.37059428954354
2.37059501473387
2.37059549027264
2.37059563602227
2.37059543050923
2.37059491688836
2.37059419705036
2.37059341570179
2.37059273581896
2.37059231195354
2.37059225969402
2.37059264325622
2.3705934566269
2.3705946283624
2.37059603126048
2.37059750161877
2.37059886274566
2.37059995040387
2.37060063829341
2.37060085177628
2.37060057658859
2.37059985966505
2.37059879912528
2.37059752789974
2.37059619634498
2.37059494895276
2.37059390412086
2.37059314018941
2.37059268759769
2.37059252974812
2.37059260991737
2.3705928453536
2.37059314446751
2.37059342553893
2.37059363033515
2.37059373244485
2.37059373858442
2.37059368262248
2.37059361494358
2.37059358800606
2.37059364308199
2.37059380016423
2.37059405321575
2.37059437678132
2.37059472444101
2.37059504475773
2.37059529795534
2.37059545439551
2.3705955132011
2.37059548344458
2.37059539655531
2.37059528860192
2.37059519248129
2.37059512976677
2.37059510616987
2.37059511153073
2.37059512390944
2.37059511700736
2.37059506835857
2.37059496727708
2.37059481834392
2.37059464108208
2.37059446498251
2.37059432148116
2.37059423555831
2.37059421772373
2.37059425959375
2.37059433504028
2.37059440601127
2.3705944325323
2.37059438488269
2.37059425283694
2.3705940519454
2.37059382394688
2.3705936302751
2.37059353961476
2.37059361325911
2.37059388700381
2.37059436286382
2.37059500159802
2.37059572616908
2.37059643267308
2.37059700859303
2.37059735354526
2.37059739910458
2.37059712360318
2.37059655706417
2.37059577892283
2.37059490570615
2.37059407052216
2.37059339989922
2.37059299203354
2.37059290030124
2.3705931251946
2.37059361322958
2.37059426977501
2.37059497894708
2.37059562209414
2.37059609862993
2.37059634245911
2.37059633042345
2.3705960842549
2.37059566120104
2.37059514125139
2.37059461122844
2.37059414914229
2.37059381151279
2.37059362619015
2.37059359078427
2.37059367676601
2.37059383918442
2.37059402714457
2.37059419459029
2.37059430864104
2.37059435467298
2.3705943378349
2.3705942799996
2.37059421327151
2.3705941720586
2.37059418578134
2.37059427194613
2.37059443270324
2.37059465374517
2.37059490936163
2.37059516528607
2.37059538774722
2.37059554815916
2.37059562994338
2.37059562843321
2.37059555191916
2.37059541793206
2.37059524732505
2.37059505748235
2.37059486190234
2.37059466381947
2.37059446062564
2.37059424554611
2.37059401286565
2.37059376248034
2.37059350283821
2.3705932543951
2.37059304727193
2.37059291633577
2.37059289522403
2.37059300968571
2.37059327119956
2.3705936747119
2.37059419874251
2.37059480702107
2.37059545299808
2.37059608569603
2.37059665592031
2.37059712140959
2.37059745022014
2.37059762504185
2.37059763697075
2.37059749032493
2.37059719871629
2.37059678545291
2.37059628251359
2.37059572769376
2.37059516319769
2.37059463290375
2.37059417882419
2.37059383686543
2.37059363172156
2.37059357399011
2.37059365879126
2.37059386593791
2.37059416308732
2.37059451132034
2.37059487130897
2.37059520777419
2.37059549429057
2.37059571310019
2.37059585767224
2.37059592426302
2.37059591390792
2.37059583080536
2.37059567649348
2.37059545443441
2.37059517167484
2.37059484154977
2.37059448641332
2.37059413782893
2.37059383411968
2.37059361501068
2.37059351434826
2.37059355260207
2.37059373163802
2.37059403220872
2.37059441582914
2.37059483034516
2.37059521874437
2.37059552930136
2.37059572461109
2.3705957870627
2.37059572135848
2.3705955519985
2.37059532077376
2.37059507505294
2.37059486201954
2.37059472084379
2.37059467831194
2.37059454665078
2.37059473159138
2.37059500675585
2.37059534043055
2.37059569354313
2.37059602321691
2.37059628652975
2.3705964438575
2.37059646228384
2.37059631943467
2.37059600912125
2.37059553889984
2.37059493721704
2.37059425112852
2.37059354313397
2.37059288544036
2.37059235184739
2.37059200805863
2.37059190198552
2.37059205546986
2.37059245883903
2.37059307023185
2.37059381865568
2.37059461124872
2.37059534431253
2.37059591618823
2.37059624062273
2.37059625830857
2.37059594639941
2.37059532081642
2.37059443781827
2.37059338834604
2.37059228819943
2.37059126511725
2.3705904445113
2.37058993458676
2.37058981466993
2.37059012557383
2.37059086391607
2.37059198323814
2.37059339854775
2.37059499520089
2.37059664098421
2.3705981990093
2.37059954029969
2.37060055550432
2.3706011637509
2.37060131868665
2.37060100931878
2.37060026387963
2.37059914298639
2.37059773604891
2.37059615390457
2.37059451949535
2.37059295803576
2.3705915869368
2.37059050454636
2.37058978070049
2.37058945072412
2.37058951367393
2.37058992234483
2.37059061659101
2.37059150679488
2.37059249785255
2.37059350101293
2.37059444314405
2.37059527284914
2.37059596250495
2.37059650529895
2.37059690838963
2.37059718556809
2.3705973499118
2.37059740922553
2.37059736403721
2.37059721068543
2.37059694658299
2.37059657605599
2.37059611578002
2.37059559711387
2.37059506473408
2.37059457116553
2.37059416834278
2.37059389803341
2.37059378245846
2.37059382163827
2.37059398977995
2.37059424055548
2.37059451571668
2.37059475608944
2.37059491319432
2.37059495880043
2.37059489049197
2.37059473160722
2.37059452591606
2.37059432787185
2.37059419086036
2.37059415551908
2.37059424178721
2.37059444211645
2.37059472759815
2.37059505019473
2.3705953565811
2.37059560033803
2.37059574296711
2.37059577815669
2.37059571510723
2.37059558635418
2.37059543408244
2.37059529771656
2.37059520539024
2.37059516637051
2.37059516914911
2.37059518456803
2.37059517544984
2.37059510727082
2.3705949600364
2.37059474201646
2.37059448039746
2.3705942288066
2.37059405137029
2.37059400772912
2.37059413731182
2.37059444683111
2.37059490361292
2.37059543818206
2.37059595543249
2.37059635202682
2.37059653702881
2.37059645119609
2.37059608124884
2.37059546500784
2.37059468625636
2.37059386104604
2.37059311779511
2.37059257527643
2.37059232298826
2.3705924068871
2.37059282530469
2.37059352998186
2.37059443606089
2.37059543663161
2.37059641848964
2.37059727688681
2.37059792814599
2.37059831612029
2.37059841463312
2.37059823345349
2.37059780542222
2.37059719135186
2.37059646797148
2.37059572104955
2.37059503526128
2.37059448292539
2.37059411403473
2.37059394799543
2.37059396980581
2.37059413181459
2.37059436098448
2.37059457139217
2.3705946806818
2.37059462644332
2.37059437902398
2.37059394940814
2.3705933885996
2.37059277746991
2.37059221618897
2.37059180420794
2.37059162093509
2.37059171631654
2.37059210134535
2.37059274894142
2.3705936006876
2.37059457869367
2.37059559922581
2.37059658498448
2.37059747353891
2.37059822128238
2.37059880212155
2.37059920227476
2.37059941410651
2.37059943175421
2.37059924978425
2.37059886323472
2.37059827238934
2.37059748934103
2.37059654569449
2.37059549690257
2.3705944214456
2.37059341476196
2.37059257764962
2.37059200053262
2.3705917469719
2.37059183967804
2.37059225231399
2.37059290946669
2.370593695698
2.37059447308404
2.37059510429377
2.37059547702533
2.37059552481385
2.37059524042757
2.37059467895
2.37059394990165
2.37059319919884
2.37059258414421
2.37059224610853
2.37059228748035
2.37059275249356
2.37059362128128
2.37059481211436
2.37059619453282
2.37059760948736
2.37059889195535
2.37059989365649
2.37060050417533
2.37060066333976
2.37060036697789
2.37059966334575
2.37059864570291
2.37059743683256
2.3705961725523
2.37059498224925
2.37059397264266
2.370593215711
2.37059274172879
2.3705925400282
2.37059256478756
2.37059274515177
2.37059300150331
2.37059325949867
2.37059346332066
2.3705935838015
2.37059362072134
2.37059359908729
2.37059356077426
2.37059355259685
2.3705936142554
2.37059376895695
2.37059401798421
2.37059434106191
2.3705947008481
2.3705950517869
2.37059535125503
2.37059556778921
2.37059568756841
2.37059571398024
2.37059566616212
2.37059557230564
2.37059546183715
2.37059535777258
2.3705952718875
2.37059520366358
2.37059514258407
2.37059507342164
2.37059498287849
2.3705948652214
2.3705947257298
2.3705945796803
2.37059444874811
2.37059435438231
2.3705943113365
2.37059432133609
2.37059437034097
2.37059443078692
2.37059446720788
2.37059444582932
2.37059434439658
2.37059416085653
2.37059391743733
2.37059365941473
2.37059344865995
2.37059335136307
2.37059342638869
2.37059370493904
2.37059418754542
2.37059483572803
2.37059557580807
2.37059630929529
2.37059692896477
2.37059733752718
2.37059746533892
2.37059728399968
2.37059681288429
2.37059611670856
2.37059529675802
2.37059447363735
2.37059376711707
2.37059327627838
2.37059306332699
2.37059314385925
2.37059348469716
2.37059401187547
2.37059462541054
2.37059521630206
2.37059568571344
2.37059596149237
2.37059600889357
2.37059583424232
2.37059548101666
2.37059501871686
2.37059452923702
2.37059409181659
2.37059376891415
2.37059359689989
2.3705935819559
2.37059370179203
2.370593912638
2.37059416018002
2.37059439056445
2.37059455977753
2.37059464186997
2.37059463222837
2.37059454695723
2.37059441759666
2.37059428398316
2.37059418480033
2.37059415170078
2.37059420135144
2.37059433421211
2.37059453580972
2.37059477895477
2.37059503236409
2.37059526365797
2.37059544707083
2.37059556585791
2.37059561363447
2.37059559305139
2.37059551192603
2.37059537893017
2.37059520166882
2.37059498458019
2.37059472942293
2.37059443815204
2.370594116498
2.37059377683752
2.37059343912939
2.37059313242013
2.37059289200642
2.37059275402351
2.3705927496656
2.37059289925589
2.37059320734731
2.37059366139593
2.37059423291367
2.37059488003748
2.37059555271219
2.37059619859136
2.37059676900429
2.3705972237458
2.37059753437715
2.37059768591493
2.37059767452384
2.37059750799738
2.37059720427915
2.37059678992355
2.3705962984144
2.37059576795245
2.37059523876122
2.37059475015849
2.37059433739192
2.37059402757689
2.37059383703103
2.37059376945329
2.37059381616254
2.37059395773001
2.37059416762301
2.37059441703997
2.37059467911205
2.37059493243724
2.37059516242719
2.37059536069241
2.3705955201568
2.37059563784177
2.3705957072069
2.37059571940666
2.370595664259
2.37059553329316
2.37059532408896
2.37059504381018
2.37059471240138
2.37059436284733
2.37059403756253
2.37059378202071
2.37059363642538
2.37059362717301
2.37059376083666
2.37059402162992
2.37059437236119
2.37059476114995
2.37059512985605
2.37059542478631
2.37059560620075
2.37059565491967
2.37059557455959
2.37059538964618
2.37059514246315
2.37059488253695
2.37059465893086
2.37059451278844
2.37059447165937
2.3705943381359
2.37059454130641
2.37059483516195
2.37059518639506
2.37059555541751
2.37059590002832
2.37059617910735
2.37059635566047
2.37059639930545
2.37059628895125
2.3705960162934
2.37059558729642
2.37059502537795
2.37059437190586
2.37059368467545
2.37059303356833
2.37059249322514
2.37059213347381
2.37059200872934
2.37059214804102
2.37059254762673
2.37059316790357
2.37059393578244
2.37059475201161
2.3705955036379
2.37059607970005
2.37059638739446
2.37059636635536
2.37059599852466
2.37059531189813
2.37059437833786
2.37059330486105
2.37059221941492
2.37059125473329
2.37059053154886
2.37059014349763
2.37059014795049
2.37059055964515
2.37059135004918
2.37059245425701
2.37059377930055
2.37059521532298
2.37059664774922
2.37059796780771
2.37059908062341
2.37059991131285
2.37060040809014
2.37060054291017
2.37060031066375
2.37059972855253
2.37059883443991
2.37059768436347
2.37059635210558
2.37059492563509
2.37059350241966
2.3705921842376
2.37059106869838
2.37059023929446
2.37058975607009
2.37058964772514
2.37058990591133
2.37059049123902
2.37059133269548
2.37059234030404
2.37059341695455
2.37059447036509
2.3705954255296
2.37059623004368
2.37059685491662
2.37059729369275
2.37059755586144
2.37059765944855
2.37059762361556
2.37059746450039
2.3705971944974
2.37059682465221
2.37059636881933
2.37059584807416
2.37059529346106
2.37059474577097
2.37059425172516
2.37059385707814
2.37059359825346
2.37059349369867
2.37059354123846
2.37059371458047
2.37059396788802
2.37059424403696
2.37059448497838
2.37059464276633
2.3705946888224
2.37059461926198
2.37059445498657
2.3705942364808
2.37059401468092
2.37059383996189
2.37059375153547
2.37059376929506
2.37059389064388
2.37059409139606
2.37059433224039
2.37059457166144
2.37059477896257
2.37059490381963
2.37059496080803
2.3705949532524
2.37059490514899
2.37059484952546
2.37059481363139
2.37059481385217
2.37059485072322
2.37059490805554
2.37059495745867
2.37059496642659
2.37059490721041
2.37059476549512
2.37059456107473
2.37059431554885
2.37059408041955
2.37059391280813
2.37059386282237
2.37059396170769
2.37059421211505
2.37059458324465
2.37059501409046
2.37059542325688
2.37059572421428
2.37059584208646
2.37059573003763
2.37059538057466
2.37059482960295
2.3705941518229
2.37059344896098
2.37059283282562
2.37059240641682
2.37059224696482
2.3705923936453
2.37059284258943
2.37059354813641
2.37059443116395
2.37059539146875
2.37059632257282
2.37059712660075
2.37059772550068
2.37059806878981
2.37059813780446
2.37059794527005
2.37059753263662
2.37059696311189
2.37059631346708
2.37059566412724
2.37059508917992
2.37059464736138
2.37059437330606
2.37059427201404
2.3705943188238
2.37059446339757
2.37059463869338
2.37059477268674
2.37059480184573
2.370594683665
2.37059440516023
2.37059398726819
2.37059348194736
2.37059296050524
2.37059250723643
2.37059220123329
2.37059210014605
2.37059223785528
2.37059261486414
2.37059320280953
2.37059395022033
2.37059479261531
2.37059566339036
2.3705965027932
2.3705972632941
2.37059791160758
2.37059842685219
2.37059879572321
2.37059900718103
2.37059904949967
2.37059891044753
2.37059857899212
2.37059805069069
2.37059733508698
2.37059646253561
2.37059548780875
2.37059448867504
2.37059355890876
2.37059279582975
2.37059228470269
2.37059208233917
2.37059220398151
2.37059261644394
2.37059323986112
2.3705939583218
2.37059463853571
2.37059515313716
2.37059540413767
2.37059534157604
2.37059497460083
2.37059437118746
2.3705936477954
2.3705929493364
2.37059242388358
2.37059219705056
2.37059235019488
2.37059290774421
2.37059383224056
2.37059503136658
2.37059637281915
2.37059770513645
2.37059887906207
2.37059976692159
2.37060027868701
2.37060037182149
2.37060005342027
2.37059937329988
2.37059841768509
2.37059729556468
2.37059612399587
2.37059501351973
2.37059405599388
2.37059331514511
2.3705928211849
2.37059257094778
2.37059253150145
2.37059264828581
2.37059285517048
2.37059308753941
2.37059329258286
2.37059343752795
2.3705935133592
2.3705935338369
2.37059352988625
2.37059354076611
2.37059360466116
2.37059374827686
2.37059398104426
2.37059429346011
2.37059465806542
2.37059503591272
2.3705953854728
2.37059567090261
2.37059586874914
2.37059597012533
2.37059598091946
2.37059591856464
2.37059580671999
2.37059566833973
2.37059552099573
2.3705953746355
2.37059523171668
2.37059509012077
2.3705949473522
2.37059480430696
2.37059466725128
2.37059454722876
2.37059445741885
2.37059440798688
2.37059440204274
2.37059443180998
2.37059447750427
2.37059451051849
2.37059449930748
2.37059441774254
2.37059425303463
2.37059401243587
2.37059372540508
2.37059344065373
2.37059321940049
2.37059312447692
2.37059320746414
2.37059349686623
2.37059398980982
2.3705946486876
2.37059540434983
2.37059616535601
2.37059683154932
2.3705973099441
2.37059753013731
2.37059745667758
2.3705970956862
2.37059649484953
2.3705957369824
2.37059492745801
2.37059417772661
2.37059358775529
2.3705932302812
2.37059313941509
2.37059330595614
2.37059368009884
2.37059418161112
2.37059471343157
2.37059517898738
2.37059549884967
2.37059562382631
2.37059554190024
2.37059527926173
2.37059489245183
2.37059445692308
2.3705940526544
2.37059374906005
2.37059359291675
2.37059360112709
2.37059375940045
2.37059402661084
2.37059434518318
2.37059465244901
2.37059489178384
2.37059502365505
2.37059503257261
2.37059492601417
2.37059473397678
2.37059450155484
2.370594278049
2.37059411030429
2.37059403213115
2.37059406055208
2.37059419460453
2.37059441635256
2.37059469660672
2.37059499966845
2.3705952899562
2.37059553687285
2.3705957175775
2.37059581779575
2.37059583081684
2.37059575511738
2.3705955929238
2.37059534931891
2.370595031999
2.37059465353787
2.37059423222136
2.37059379421049
2.37059337256346
2.37059300580177
2.37059273431411
2.37059259489963
2.3705926153078
2.3705928092658
2.37059317321448
2.37059368570367
2.37059431008999
2.37059499846308
2.37059569686382
2.37059635161181
2.37059691491695
2.37059734925588
2.37059763025459
2.37059774683765
2.37059770005971
2.37059750303962
2.37059717874996
2.3705967576885
2.37059627608161
2.37059577269899
2.37059528534465
2.3705948479537
2.37059448696329
2.37059421939066
2.37059405097602
2.37059397674458
2.37059398296793
2.37059405074666
2.37059416012907
2.3705942940039
2.37059444066873
2.37059459464725
2.37059475608119
2.37059492957403
2.37059510272295
2.37059527937698
2.37059544286185
2.37059557096621
2.37059563948097
2.3705956264267
2.37059551797589
2.37059531368617
2.37059502951225
2.37059469857129
2.37059436605929
2.37059408197252
2.3705938919137
2.37059382799572
2.37059390196478
2.37059410217945
2.3705943946104
2.37059472989202
2.37059505105447
2.37059530474159
2.37059545138633
2.37059547119921
2.37059536746054
2.37059516519182
2.37059490599198
2.37059463981141
2.37059441616684
2.37059427628627
2.37059424701559
2.37059419030231
2.37059441146629
2.37059471677274
2.37059507309781
2.37059544255033
2.3705957860756
2.3705960670665
2.37059625348126
2.37059631916454
2.37059624524158
2.37059602205567
2.37059565199823
2.3705951516149
2.37059455413885
2.37059390971229
2.37059328295683
2.37059274695998
2.37059237410075
2.37059222481599
2.3705923358278
2.37059271047258
2.37059331362044
2.37059407240188
2.37059488358673
2.37059562738454
2.37059618549235
2.37059646012791
2.37059639080858
2.37059596542982
2.37059522351137
2.37059425247021
2.37059317440428
2.37059212770339
2.37059124799092
2.370590648532
2.37059040594602
2.37059055223102
2.37059107330655
2.37059191453809
2.37059299213618
2.37059420602789
2.37059545356364
2.37059664123535
2.37059769212699
2.37059854957424
2.37059917685187
2.37059955373331
2.3705996720477
2.37059953139022
2.37059913759932
2.37059850248917
2.37059764584965
2.37059660006847
2.37059541389758
2.37059415420022
2.37059290506319
2.37059176178167
2.37059082105733
2.37059016884379
2.37058986710752
2.37058994371737
2.37059038733264
2.37059114735941
2.37059214092863
2.37059326441083
2.37059440655577
2.37059546955881
2.37059637651334
2.37059707472554
2.37059754335229
2.37059778702172
2.37059782853998
2.37059769796719
2.37059742758509
2.37059704634586
2.37059657906233
2.37059604890113
2.37059548073708
2.37059490421055
2.37059435476016
2.37059387169781
2.37059349317657
2.37059324926612
2.37059315488991
2.37059320587667
2.37059337683149
2.37059362450647
2.37059389491882
2.37059413295851
2.37059429263448
2.37059434564316
2.37059428639938
2.3705941321044
2.3705939181823
2.37059368995601
2.37059349280394
2.37059336276569
2.3705933196266
2.37059336410138
2.37059347943438
2.37059363767555
2.37059380757842
2.37059396159328
2.37059407791682
2.37059415650549
2.37059420655557
2.37059424410696
2.37059428890538
2.3705943556105
2.37059444837961
2.37059455900503
2.37059466739229
2.37059474668815
2.37059477024832
2.37059471948198
2.37059458991878
2.3705943988736
2.37059417463398
2.37059396094958
2.37059380418484
2.37059374331206
2.37059380068806
2.37059397466516
2.37059423849885