/*--------------------------------*- C++ -*----------------------------------*\
| =========                 |                                                 |
| \\      /  F ield         | foam-extend: Open Source CFD                    |
|  \\    /   O peration     | Version:     4.0                                |
|   \\  /    A nd           | Web:         http://www.foam-extend.org         |
|    \\/     M anipulation  |                                                 |
\*---------------------------------------------------------------------------*/
FoamFile
{
    version     2.0;
    format      ascii;
    class       volScalarField;
    location    "1";
    object      T;
}
// * * * * * * * * * * * * * * * * * * * * * * * * * * * * * * * * * * * * * //

dimensions      [0 0 0 1 0 0 0];

internalField   nonuniform List<scalar> 
160000
(
1.40004658730466
1.40004662171459
1.40004666835766
1.40004672173674
1.4000467750078
1.40004682063343
1.40004685122851
1.4000468601675
1.40004684195676
1.40004679347139
1.40004671542798
1.40004661142003
1.40004648875951
1.40004635776117
1.400046230573
1.40004611974168
1.4000460364798
1.40004598925765
1.40004598270019
1.40004601696974
1.40004608744137
1.40004618631411
1.40004630232413
1.40004642251391
1.40004653327374
1.40004662138126
1.40004667505353
1.40004668487747
1.40004664500066
1.40004655371854
1.4000464147661
1.40004623771109
1.40004603795535
1.40004583590008
1.40004565538393
1.40004552128238
1.40004545633113
1.4000454780102
1.4000455957912
1.40004580878928
1.4000461049888
1.40004646192197
1.40004684872261
1.40004722931301
1.4000475666901
1.40004782720111
1.40004798441998
1.40004802243939
1.40004793713225
1.40004773719033
1.40004744250644
1.40004708241397
1.40004669237734
1.40004630959809
1.40004596817935
1.40004569529994
1.40004550870992
1.40004541548721
1.40004541202408
1.40004548555069
1.40004561629741
1.4000457817288
1.4000459594586
1.40004613088174
1.40004628326382
1.40004641054745
1.40004651287507
1.40004659476118
1.40004666274085
1.40004672303389
1.4000467795535
1.40004683264065
1.40004687904145
1.40004691312083
1.40004692817712
1.40004691884874
1.40004688241043
1.40004682035091
1.40004673848079
1.40004664628908
1.4000465553166
1.40004647699688
1.40004642061355
1.40004639202668
1.40004639235276
1.40004641689851
1.40004645705608
1.40004650275436
1.40004654379206
1.40004657152047
1.40004658069542
1.40004657162289
1.40004654875051
1.40004652074244
1.40004649806739
1.40004649088947
1.40004650675469
1.40004654874679
1.40004661473959
1.40004669746776
1.40004678576873
1.40004686690485
1.40004692908684
1.40004696376637
1.40004696759023
1.40004694277362
1.40004689601383
1.40004683728342
1.40004677732623
1.40004672498323
1.40004668509446
1.40004665757641
1.40004663799025
1.40004661933941
1.40004659379894
1.40004655631527
1.4000465071433
1.40004645116219
1.40004639883179
1.40004636356772
1.40004635855077
1.40004639282081
1.40004646845679
1.40004657898375
1.40004670951784
1.40004683893465
1.40004694379539
1.40004700291607
1.40004700182425
1.4000469359133
1.40004681187684
1.40004664678407
1.40004646517431
1.40004629471771
1.40004616144931
1.40004608546071
1.40004607798601
1.4000461402099
1.40004626384244
1.40004643294064
1.40004662690278
1.40004682339332
1.40004700102226
1.40004714175502
1.40004723227504
1.40004726445712
1.40004723694771
1.40004715364377
1.40004702410392
1.40004686246894
1.40004668722573
1.40004651795606
1.40004637379651
1.40004626998777
1.40004621551183
1.40004621136625
1.40004624987071
1.40004631555426
1.40004638770063
1.40004644431426
1.40004646646741
1.40004644215855
1.40004636896191
1.40004625491445
1.40004611716997
1.40004597877025
1.40004586461309
1.40004579698549
1.40004579167017
1.40004585536708
1.40004598499833
1.40004616885719
1.40004638918658
1.40004662538486
1.40004685723151
1.40004706725002
1.40004724240276
1.40004737452418
1.40004745965604
1.40004749696985
1.40004748761427
1.40004743214768
1.4000473339999
1.40004719576783
1.40004702196482
1.40004682000675
1.40004660080353
1.40004637884
1.40004617139884
1.4000459968691
1.40004587226134
1.4000458103338
1.40004581708758
1.40004588996435
1.40004601744099
1.40004617982512
1.40004635181817
1.40004650628422
1.40004661869302
1.40004667138657
1.40004665686749
1.40004657943913
1.40004645495113
1.40004630841961
1.40004617000399
1.40004606986512
1.40004603341454
1.40004607670916
1.40004620374136
1.40004640516275
1.40004665972922
1.40004693751851
1.4000472043686
1.4000474268914
1.40004757769792
1.40004763896291
1.4000476049178
1.40004748213103
1.4000472884465
1.40004704973415
1.40004679620878
1.4000465573714
1.40004635778296
1.40004621381247
1.40004613169858
1.40004610778697
1.40004613009581
1.40004618150643
1.4000462432967
1.40004629898315
1.40004633709038
1.40004635282955
1.40004634818539
1.40004633041988
1.40004630982062
1.4000462967165
1.40004629887833
1.40004631967958
1.40004635766191
1.40004640702591
1.40004645959057
1.4000465068219
1.40004654184898
1.400046561408
1.4000465662617
1.40004656062238
1.40004655107834
1.40004654441934
1.4000465458796
1.40004655764049
1.40004657816433
1.40004660252778
1.40004662373096
1.40004663456997
1.40004662945902
1.40004660609613
1.40004656599498
1.40004651447557
1.40004645956537
1.40004641013936
1.40004637349499
1.40004635397624
1.40004635199848
1.40004636350819
1.40004638135232
1.40004639727021
1.40004640421479
1.40004639825928
1.40004638013038
1.40004635588149
1.40004633605325
1.40004633239503
1.40004635693517
1.4000464142115
1.40004650456734
1.40004662012715
1.40004674596415
1.40004686222004
1.40004694790521
1.40004698511077
1.40004696294911
1.40004688023498
1.40004674606934
1.40004657901164
1.40004640410993
1.400046248334
1.40004613574565
1.40004608321535
1.40004609737466
1.4000461736761
1.40004629757672
1.40004644729999
1.40004659798744
1.40004672616994
1.40004681389022
1.4000468512944
1.40004683723343
1.40004677945766
1.40004669135518
1.40004658927541
1.40004648939625
1.40004640489529
1.40004634384372
1.4000463084749
1.40004629588485
1.40004629972704
1.40004631238721
1.40004632655648
1.40004633689205
1.40004634112945
1.40004634023891
1.40004633806296
1.40004633979359
1.40004635121467
1.4000463765658
1.40004641761511
1.40004647324206
1.40004653911751
1.40004660830074
1.40004667264899
1.40004672374451
1.40004675515782
1.4000467630409
1.40004674693584
1.40004670961948
1.40004665666571
1.4000465953157
1.40004653310412
1.40004647638906
1.4000464294097
1.4000463932625
1.40004636658997
1.40004634620213
1.40004632798186
1.40004630841363
1.40004628589848
1.4000462612583
1.40004623754476
1.40004621973382
1.40004621406113
1.40004622652389
1.40004626122682
1.4000463196747
1.40004640053765
1.40004649954186
1.40004661004037
1.4000467238041
1.40004683191665
1.40004692574195
1.40004699792358
1.40004704327811
1.40004705834097
1.40004704156044
1.40004699355417
1.40004691742251
1.40004681822704
1.40004670240002
1.40004658014122
1.40004646048639
1.40004635236311
1.40004626735712
1.40004621273932
1.40004619347144
1.4000462105353
1.40004626081501
1.40004633739887
1.40004643063107
1.40004652942251
1.40004662281419
1.40004670146919
1.40004675856276
1.40004679013132
1.4000467956581
1.40004677696069
1.40004673751274
1.40004668172801
1.40004661463505
1.40004654146799
1.40004646763545
1.40004639874247
1.40004634044853
1.40004629816605
1.40004627653107
1.40004627868366
1.40004630537115
1.40004635431995
1.40004642020851
1.40004649536048
1.40004657073798
1.4000466373473
1.40004668774723
1.40004671728563
1.40004672450397
1.40004671154763
1.40004668343429
1.40004664752697
1.40004661168223
1.40004658319701
1.40004656767935
1.40004656877149
1.40004650522752
1.40004653748394
1.40004658658826
1.40004664695646
1.40004671134571
1.40004677155888
1.40004681920246
1.40004684632089
1.40004684601449
1.40004681346586
1.40004674801731
1.40004665087765
1.40004652823374
1.40004638998596
1.40004624890421
1.40004611935084
1.40004601555189
1.40004594971078
1.40004593026949
1.40004596054075
1.40004603789596
1.40004615412411
1.40004629585599
1.40004644614802
1.40004658628391
1.40004669784643
1.40004676493171
1.40004677597139
1.40004672533749
1.40004661398017
1.40004645011465
1.40004624890404
1.40004603091512
1.40004582030623
1.40004564258343
1.40004552151078
1.40004547644619
1.40004551981712
1.40004565531006
1.40004587701399
1.40004616968051
1.40004651006923
1.400046869262
1.40004721564633
1.40004751819318
1.40004774963781
1.40004788921608
1.40004792471477
1.40004785311405
1.40004768115314
1.40004742409652
1.40004710490628
1.40004675185534
1.40004639545343
1.4000460652714
1.40004578680322
1.40004557917275
1.4000454535883
1.40004541275964
1.40004545140157
1.40004555506744
1.40004570746293
1.4000458880714
1.40004607764675
1.40004626027107
1.40004642478052
1.40004656526597
1.40004668051884
1.40004677268902
1.40004684541551
1.40004690204722
1.40004694424374
1.40004697142966
1.4000469812817
1.40004697038183
1.40004693603858
1.4000468775879
1.40004679767597
1.40004670261441
1.40004660188582
1.40004650677202
1.40004642838885
1.40004637563097
1.40004635344087
1.40004636203388
1.40004639607376
1.40004644606617
1.40004650052174
1.40004654781803
1.40004657844996
1.40004658704905
1.40004657366944
1.40004654336719
1.40004650543816
1.40004647125875
1.40004645177299
1.40004645519726
1.40004648500325
1.40004653923707
1.40004661074021
1.40004668858869
1.40004676038112
1.40004681503663
1.40004684478476
1.4000468470668
1.40004682448796
1.4000467843751
1.40004673680677
1.40004669173139
1.40004665681184
1.40004663548314
1.40004662615456
1.40004662307806
1.40004661814256
1.40004660322759
1.40004657303772
1.40004652832439
1.40004647422501
1.40004642194436
1.40004638527026
1.40004637748167
1.40004640769873
1.40004647770069
1.40004658089405
1.40004670240891
1.40004682115226
1.40004691415274
1.4000469609313
1.40004694795143
1.40004687166193
1.40004673978194
1.40004657019801
1.40004638800191
1.40004622107073
1.40004609522361
1.40004602994518
1.40004603549055
1.40004611183671
1.40004624927619
1.40004643043602
1.4000466335908
1.40004683544521
1.4000470145421
1.40004715325632
1.40004723906279
1.40004726397519
1.40004723302239
1.40004714672203
1.40004701816869
1.40004686306766
1.40004669866277
1.40004654309048
1.40004641375255
1.40004632343438
1.40004627852374
1.40004627788661
1.40004631266154
1.40004636746957
1.4000464230189
1.40004645982365
1.40004646214902
1.40004642122999
1.40004633733757
1.40004622015754
1.40004608709584
1.40004596026447
1.40004586238434
1.40004581265919
1.40004582371337
1.40004589943373
1.40004603479425
1.40004621731329
1.40004642971199
1.4000466533205
1.40004686926951
1.40004706356528
1.40004722652137
1.40004735101233
1.40004743451464
1.40004747609395
1.40004747562581
1.40004743288409
1.40004734814559
1.40004722216425
1.40004705779939
1.4000468614819
1.40004664415113
1.40004642124869
1.40004621167547
1.40004603563933
1.40004591163934
1.40004585317226
1.40004586591522
1.40004594590293
1.4000460792819
1.40004624372467
1.40004641163157
1.40004655456668
1.4000466481781
1.40004667665339
1.40004663588869
1.40004653436273
1.40004639221895
1.40004623795327
1.40004610357921
1.40004601946679
1.40004600841587
1.40004608321985
1.40004624290441
1.4000464734226
1.40004674959522
1.40004703914982
1.40004730738017
1.40004752204588
1.40004765832302
1.40004770152189
1.4000476487183
1.40004750918198
1.4000473019673
1.40004705293379
1.40004679163236
1.40004654630922
1.40004634025222
1.40004618886379
1.40004609816544
1.40004606498078
1.40004607830374
1.40004612209705
1.40004617857226
1.40004623179081
1.40004627030347
1.40004628886156
1.40004628874826
1.40004627659548
1.40004626232648
1.4000462563127
1.40004626674918
1.40004629776777
1.40004634896018
1.40004641299922
1.40004648238871
1.40004654855975
1.40004660111278
1.40004663465696
1.40004664886953
1.40004664532229
1.40004663000149
1.40004660991265
1.40004659152919
1.4000465791794
1.40004657406524
1.40004657429012
1.40004657562401
1.40004657303509
1.40004656227523
1.40004654137096
1.40004651132091
1.4000464759896
1.4000464412221
1.40004641326606
1.40004639686181
1.40004639387973
1.40004640262375
1.40004641787314
1.40004643200154
1.40004643712703
1.40004642744635
1.40004640093518
1.40004636061129
1.40004631484192
1.40004627608468
1.4000462582687
1.40004627310379
1.40004632797821
1.40004642306505
1.40004655045364
1.40004669473704
1.40004683524224
1.40004694961038
1.4000470179425
1.40004702674405
1.40004697183694
1.40004685930159
1.40004670499954
1.40004653210498
1.40004636701773
1.40004623476117
1.40004615466532
1.40004613709393
1.40004618190874
1.40004627856208
1.40004640840501
1.40004654838571
1.4000466750035
1.40004676850591
1.40004681601403
1.40004681306885
1.40004676400849
1.40004668018149
1.40004657740623
1.40004647284495
1.40004638193393
1.40004631577209
1.40004627966527
1.40004627296008
1.40004629003884
1.40004632217375
1.40004635931392
1.40004639231167
1.40004641475348
1.40004642377287
1.40004642026539
1.40004640877637
1.40004639531079
1.40004638683213
1.40004638866076
1.40004640472745
1.40004643540192
1.40004647792023
1.40004652726344
1.40004657681236
1.40004662010788
1.40004665166333
1.40004666827697
1.40004666896408
1.40004665532881
1.40004663051698
1.40004659835659
1.40004656224986
1.40004652470565
1.40004648624918
1.40004644635868
1.4000464036756
1.40004635698069
1.40004630622303
1.40004625357851
1.40004620353677
1.40004616194875
1.40004613547098
1.40004613075462
1.40004615297068
1.40004620437417
1.40004628390827
1.40004638721739
1.40004650706377
1.4000466343325
1.4000467591419
1.4000468719019
1.40004696423082
1.40004702971082
1.40004706483972
1.40004706783127
1.40004703942553
1.40004698232802
1.40004690117321
1.40004680217767
1.40004669280518
1.40004658139343
1.40004647658425
1.40004638662114
1.40004631859262
1.40004627748315
1.40004626549861
1.40004628169948
1.40004632212873
1.40004638051542
1.40004644927191
1.40004652064362
1.4000465876212
1.40004664495741
1.40004668909657
1.40004671860556
1.40004673259145
1.40004673182947
1.40004671651827
1.40004668705352
1.40004664404509
1.40004658877221
1.40004652388473
1.40004645376139
1.40004638456548
1.40004632379765
1.40004627928913
1.40004625782959
1.40004626365336
1.40004629725382
1.40004635491609
1.40004642918668
1.40004650997344
1.40004658621171
1.40004664781853
1.40004668744713
1.40004670152938
1.40004669080435
1.40004665984434
1.40004661658512
1.40004657005026
1.4000465292998
1.40004650195638
1.40004649311821
1.40004646682762
1.40004650136613
1.4000465535409
1.4000466173752
1.40004668535727
1.40004674916145
1.40004680035854
1.40004683112996
1.40004683494912
1.40004680731095
1.40004674684221
1.40004665489101
1.40004653696753
1.40004640224421
1.40004626296394
1.4000461333355
1.40004602791975
1.40004595970312
1.40004593819262
1.40004596780902
1.4000460468157
1.4000461670863
1.40004631472037
1.4000464714418
1.40004661673863
1.40004673049225
1.40004679563818
1.40004680040413
1.40004674016638
1.40004661787605
1.4000464444914
1.40004623786144
1.40004602077478
1.40004581842624
1.40004565556626
1.40004555356313
1.40004552831013
1.40004558809524
1.4000457323326
1.40004595201156
1.40004623054721
1.40004654540978
1.40004687040692
1.40004717842056
1.40004744390456
1.40004764509965
1.40004776592182
1.40004779718267
1.40004773668445
1.40004758981695
1.40004736831577
1.40004708990624
1.40004677674702
1.40004645355757
1.40004614549045
1.40004587565384
1.40004566308795
1.4000455212142
1.40004545678964
1.4000454696026
1.40004555033238
1.40004568709684
1.40004586224782
1.40004605706893
1.40004625420986
1.40004643941823
1.40004660268204
1.40004673858265
1.40004684574252
1.40004692549676
1.40004698040339
1.40004701288567
1.40004702439936
1.40004701505218
1.40004698419973
1.40004693142176
1.40004685767794
1.4000467664091
1.40004666397751
1.40004655932588
1.40004646286321
1.40004638479326
1.40004633322671
1.40004631232757
1.40004632182654
1.40004635638901
1.4000464067239
1.40004646122913
1.40004650826293
1.4000465384213
1.4000465463585
1.40004653183956
1.40004649964193
1.40004645855002
1.40004641939829
1.40004639271473
1.40004638638359
1.40004640418645
1.40004644442278
1.40004650123528
1.40004656502979
1.40004662520879
1.40004667271875
1.40004670018543
1.4000467060901
1.40004669196558
1.40004666482196
1.40004663339861
1.4000466054259
1.40004658641633
1.4000465782781
1.40004657868563
1.40004658190591
1.40004658046497
1.40004656743661
1.40004653877544
1.40004649606698
1.40004644465568
1.40004639513055
1.4000463602092
1.40004635175815
1.4000463775964
1.40004643898761
1.40004652946388
1.4000466352929
1.40004673760359
1.40004681591937
1.40004685224371
1.40004683494639
1.4000467614065
1.40004663911608
1.40004648464951
1.40004632098519
1.40004617355251
1.40004606584095
1.4000460155521
1.40004603181968
1.40004611433069
1.40004625365489
1.40004643324771
1.4000466320358
1.40004682774174
1.40004699965312
1.40004713079937
1.40004720973926
1.40004723107393
1.40004719642781
1.40004711198747
1.40004698971759
1.40004684508896
1.40004669515824
1.40004655685434
1.40004644495454
1.40004636969473
1.40004633523569
1.40004633879899
1.40004637097268
1.40004641719615
1.40004646028061
1.40004648368724
1.40004647485505
1.40004642780152
1.40004634456599
1.4000462349163
1.4000461144806
1.40004600327488
1.40004592120422
1.40004588385393
1.40004590095507
1.40004597511195
1.40004610112044
1.40004626761783
1.40004645947563
1.4000466603989
1.40004685522659
1.40004703165426
1.40004718096299
1.40004729772731
1.40004737893883
1.40004742283215
1.40004742802603
1.40004739326377
1.40004731748825
1.40004720083994
1.40004704583059
1.40004685887483
1.40004665108822
1.40004643812814
1.4000462389839
1.40004607359816
1.40004595978045
1.40004590996663
1.40004592850177
1.4000460100898
1.40004613979011
1.40004629480419
1.40004644792735
1.40004657207536
1.40004664509799
1.40004665395274
1.40004659731127
1.40004648615921
1.40004634211032
1.40004619385982
1.40004607231847
1.40004600528736
1.40004601294056
1.40004610408571
1.40004627494664
1.40004650942585
1.40004678171009
1.40004706045891
1.40004731324233
1.40004751093777
1.40004763183456
1.40004766412644
1.40004760700679
1.40004746992413
1.4000472710501
1.40004703433839
1.40004678637132
1.4000465525513
1.40004635378414
1.40004620411241
1.4000461095681
1.40004606816306
1.40004607093474
1.40004610408215
1.40004615212291
1.40004620054297
1.40004623838861
1.40004625992336
1.40004626511748
1.40004625902452
1.40004624997778
1.4000462472936
1.40004625893496
1.40004628961666
1.40004633969653
1.40004640499994
1.40004647812316
1.40004654999041
1.40004661185114
1.4000466572698
1.40004668331151
1.40004669054205
1.400046682631
1.40004666512622
1.40004664388296
1.40004662351446
1.40004660641294
1.40004659253474
1.40004657986119
1.40004656545353
1.40004654675302
1.40004652268809
1.40004649438386
1.4000464649005
1.40004643863338
1.40004641991872
1.40004641155668
1.40004641371111
1.40004642362174
1.40004643583417
1.40004644322091
1.40004643902702
1.40004641883607
1.40004638222014
1.40004633361046
1.40004628209598
1.40004624007446
1.40004622122608
1.40004623585031
1.400046291589
1.40004638804616
1.40004651747171
1.40004666510009
1.40004681127261
1.40004693461068
1.40004701572622
1.40004704081744
1.40004700434771
1.4000469102974
1.40004677166685
1.40004660868911
1.40004644537501
1.40004630549236
1.40004620861808
1.40004616695379
1.40004618343268
1.40004625138986
1.40004635607571
1.40004647755916
1.40004659422878
1.40004668663947
1.40004674068998
1.40004674958915
1.40004671472421
1.40004664472811
1.40004655339227
1.40004645686566
1.40004637075253
1.40004630732016
1.40004627366673
1.40004627093961
1.40004629479039
1.40004633668562
1.40004638573414
1.40004643116165
1.40004646447626
1.40004648062601
1.40004647862602
1.4000464616293
1.40004643578819
1.4000464088671
1.40004638855587
1.40004638101862
1.40004638966447
1.40004641458518
1.40004645306906
1.4000464998752
1.40004654901927
1.40004659423566
1.40004663047627
1.4000466544597
1.40004666491523
1.4000466621664
1.4000466475422
1.40004662259185
1.40004658867943
1.40004654659778
1.40004649672269
1.40004643942936
1.40004637561044
1.40004630769661
1.40004624008511
1.40004617897574
1.40004613124972
1.40004610381501
1.40004610280964
1.40004613230399
1.40004619316964
1.40004628285899
1.40004639567705
1.40004652330666
1.4000466558729
1.40004678320516
1.40004689584968
1.40004698590197
1.40004704767568
1.40004707810541
1.40004707633759
1.40004704390366
1.40004698431145
1.40004690273808
1.40004680579553
1.40004670103079
1.40004659637025
1.40004649956476
1.40004641757745
1.40004635579113
1.40004631752205
1.40004630358713
1.40004631233365
1.40004633995747
1.40004638130756
1.40004643074614
1.40004648295847
1.40004653365501
1.40004657988214
1.40004661990332
1.40004665227638
1.40004667642468
1.40004669087319
1.40004669400435
1.40004668386229
1.40004665864726
1.40004661776606
1.40004656270799
1.4000464973916
1.40004642824735
1.40004636359815
1.40004631239194
1.40004628257885
1.40004627951892
1.40004630463802
1.40004635487721
1.40004642303184
1.40004649907872
1.40004657168693
1.40004663035743
1.40004666727733
1.40004667858149
1.40004666484716
1.40004663063973
1.40004658398909
1.40004653435371
1.40004649116014
1.40004646240389
1.40004645351147
1.40004642581402
1.40004646381087
1.40004651961049
1.40004658690996
1.40004665807525
1.40004672486787
1.40004677919038
1.40004681372178
1.40004682242615
1.40004680106949
1.40004674789063
1.40004666394797
1.40004655375844
1.40004642538364
1.4000462901454
1.40004616179301
1.40004605505765
1.40004598372531
1.40004595856531
1.40004598538996
1.40004606364039
1.40004618565443
1.40004633707554
1.40004649834354
1.40004664714146
1.40004676151038
1.40004682310701
1.40004681996222
1.40004674842308
1.40004661397017
1.4000464305807
1.40004621917812
1.40004600501072
1.40004581424865
1.40004567078866
1.40004559298572
1.40004559234692
1.40004567218356
1.4000458268985
1.40004604382476
1.40004630485555
1.40004658843791
1.40004687181663
1.40004713339247
1.40004735429962
1.40004751948344
1.40004761851211
1.40004764571861
1.40004760009414
1.40004748496577
1.4000473078097
1.40004707991101
1.40004681604551
1.40004653393021
1.40004625325972
1.40004599413151
1.40004577549929
1.40004561341435
1.40004551933936
1.40004549892726
1.40004555029262
1.40004566550877
1.40004583078306
1.40004602844206
1.40004623954567
1.40004644611669
1.40004663360149
1.40004679181254
1.40004691500688
1.40004700181653
1.40004705393276
1.40004707472377
1.40004706783205
1.40004703640687
1.40004698289312
1.40004690950075
1.40004681903171
1.40004671576893
1.40004660600992
1.4000464979425
1.40004640085333
1.40004632376228
1.40004627377366
1.40004625436733
1.40004626490785
1.40004630000792
1.40004635055797
1.4000464051739
1.40004645241839
1.40004648300055
1.40004649150978
1.40004647741823
1.40004644495622
1.40004640219473
1.40004635921359
1.40004632587902
1.40004630967859
1.40004631433975
1.40004633914522
1.40004637920567
1.40004642667391
1.40004647327907
1.40004651308706
1.40004653651759
1.40004654621446
1.4000465420373
1.40004653017768
1.40004651725638
1.40004650860392
1.40004650749773
1.40004651411117
1.40004652530579
1.40004653543134
1.40004653795196
1.4000465272543
1.40004650034136
1.40004646095823
1.40004641325399
1.40004636735255
1.40004633455989
1.40004632486437
1.40004634455003
1.4000463941951
1.40004646772957
1.40004655312694
1.40004663429807
1.40004669405523
1.40004671751269
1.40004669543924
1.40004662624367
1.4000465169566
1.40004638230851
1.40004624243634
1.40004611952686
1.40004603402197
1.40004600133725
1.40004602938213
1.40004611753972
1.40004625696457
1.40004643208778
1.40004662330672
1.40004680966696
1.40004697149938
1.4000470929663
1.40004716366926
1.40004717951096
1.40004714265814
1.40004706104498
1.40004694702684
1.40004681587308
1.40004668397903
1.40004656658519
1.4000464755709
1.40004641810618
1.4000463957427
1.40004640388942
1.40004643265515
1.40004646858997
1.40004649717569
1.40004650548343
1.4000464847325
1.40004643226425
1.40004635206276
1.40004625394577
1.40004615131672
1.40004606119559
1.40004599991702
1.40004597868682
1.40004600348946
1.4000460755275
1.40004618934918
1.40004633499604
1.40004650005189
1.4000466716242
1.40004683801562
1.40004698984779
1.40004712041463
1.40004722528003
1.40004730144236
1.40004734633062
1.40004735727737
1.40004733164947
1.40004726707548
1.40004716273166
1.4000470206658
1.40004684709059
1.40004665313563
1.40004645442033
1.40004626966555
1.40004611823531
1.40004601693949
1.40004597688777
1.40004600091363
1.40004608234046
1.40004620528419
1.40004634680295
1.40004648058531
1.40004658151307
1.40004663030115
1.40004661721099
1.40004654409886
1.40004642455651
1.40004628154851
1.4000461435759
1.40004603975944
1.40004599481544
1.40004602475019
1.40004613439942
1.40004631643675
1.40004655267725
1.40004681699252
1.40004707953745
1.40004731094197
1.40004748610992
1.40004758740386
1.40004760650029
1.40004754480893
1.40004741214277
1.4000472253041
1.40004700556972
1.40004677587105
1.40004655790065
1.40004636961762
1.40004622346222
1.40004612542426
1.40004607495177
1.40004606556084
1.40004608656493
1.40004612506974
1.40004616843261
1.40004620631917
1.40004623234786
1.40004624482939
1.40004624665573
1.4000462440922
1.40004624512688
1.40004625713864
1.40004628570275
1.40004633287698
1.40004639638535
1.40004647066437
1.4000465477598
1.40004661926079
1.40004667788548
1.40004671883474
1.4000467402943
1.40004674350692
1.40004673196823
1.40004671044436
1.40004668353817
1.40004665476443
1.40004662604427
1.40004659784032
1.40004656970238
1.40004654109695
1.40004651220796
1.40004648431196
1.40004645967092
1.40004644108313
1.40004643075658
1.40004642926076
1.40004643491449
1.40004644389617
1.40004645057325
1.40004644861148
1.40004643269194
1.40004640018325
1.40004635247423
1.40004629541935
1.40004623876552
1.40004619472759
1.40004617585764
1.40004619249293
1.40004625031959
1.40004634873721
1.40004648024811
1.40004663104777
1.40004678284043
1.40004691557558
1.40004701065827
1.40004705407176
1.40004703883441
1.40004696630839
1.40004684615717
1.40004669500828
1.40004653391145
1.40004638504423
1.40004626823003
1.4000461978327
1.40004618050571
1.40004621424779
1.40004628898616
1.40004638867834
1.40004649404469
1.4000465860208
1.40004664899406
1.40004667331804
1.40004665685128
1.40004660480906
1.40004652839032
1.4000464425087
1.40004636289691
1.40004630320011
1.40004627261451
1.40004627444202
1.40004630591672
1.40004635900261
1.4000464221033
1.40004648271228
1.40004652994048
1.40004655602573
1.4000465575665
1.40004653626515
1.40004649804774
1.4000464515444
1.40004640680353
1.4000463727117
1.4000463560917
1.40004636037202
1.40004638549596
1.40004642800886
1.40004648231663
1.400046541486
1.40004659856253
1.40004664754341
1.40004668390104
1.40004670470976
1.40004670844432
1.40004669465208
1.40004666364373
1.40004661635284
1.40004655429866
1.40004647996532
1.40004639679445
1.40004631000324
1.40004622636398
1.40004615374631
1.40004610013027
1.40004607271551
1.40004607698059
1.40004611559072
1.4000461876827
1.40004628903796
1.40004641245991
1.4000465483545
1.40004668610131
1.40004681521169
1.40004692638565
1.40004701227585
1.40004706804038
1.40004709141571
1.40004708252642
1.40004704392688
1.40004698011781
1.40004689707801
1.40004680191081
1.40004670225649
1.40004660563418
1.40004651875374
1.40004644683058
1.40004639329467
1.40004635937193
1.40004634415489
1.40004634499897
1.40004635823054
1.40004637994913
1.40004640675551
1.40004643631217
1.4000464674822
1.40004650019746
1.40004653525408
1.4000465701991
1.40004660589784
1.40004663850247
1.40004666417048
1.40004667812664
1.40004667593239
1.40004665480025
1.40004661471282
1.40004655880687
1.40004649354305
1.40004642779735
1.40004637140737
1.40004633335699
1.40004632006782
1.40004633392143
1.40004637272703
1.40004642987672
1.4000464957282
1.40004655920545
1.40004660988107
1.40004663989358
1.40004664532513
1.40004662667881
1.40004658866075
1.40004653920688
1.40004648790808
1.40004644430471
1.40004641640852
1.40004640954658
1.40004639606013
1.40004643770024
1.40004649593139
1.40004656442649
1.40004663583634
1.40004670249571
1.40004675717723
1.40004679352888
1.40004680634546
1.40004679187573
1.40004674814554
1.40004667555205
1.40004657729607
1.40004645985835
1.40004633306238
1.40004620961105
1.40004610390216
1.40004603019099
1.40004600040581
1.40004602185988
1.40004609534303
1.40004621403231
1.40004636361544
1.40004652378493
1.40004667088945
1.40004678153371
1.40004683639021
1.40004682346721
1.40004674031201
1.40004659488648
1.4000464041036
1.40004619172103
1.40004598519037
1.40004581120725
1.40004569227334
1.40004564337719
1.4000456708602
1.40004577235692
1.40004593719046
1.40004614899371
1.40004638828751
1.40004663496777
1.4000468703689
1.40004707914528
1.40004724994911
1.40004737518703
1.40004745061552
1.40004747445524
1.40004744661856
1.40004736831101
1.40004724202115
1.40004707190501
1.40004686465456
1.40004663024023
1.40004638212832
1.40004613694049
1.40004591322841
1.40004572966644
1.40004560278936
1.40004554453614
1.40004556020394
1.40004564748575
1.40004579647673
1.40004599097773
1.40004621082838
1.4000464344034
1.40004664269857
1.40004682075837
1.40004695822648
1.40004705086537
1.40004709941673
1.40004710819454
1.40004708298014
1.40004703004731
1.40004695502635
1.40004686277469
1.40004675788545
1.4000466453499
1.40004653114522
1.4000464223854
1.40004632690461
1.40004625225437
1.40004620434009
1.40004618603901
1.40004619644324
1.40004623045586
1.40004627947038
1.40004633279048
1.40004637958858
1.40004641093362
1.40004642143224
1.40004641016226
1.40004638055875
1.4000463396152
1.40004629622007
1.40004625915604
1.40004623524884
1.40004622814508
1.40004623783054
1.40004626093871
1.40004629190964
1.40004632451608
1.40004635328979
1.40004637402193
1.40004638707323
1.4000463944645
1.40004639943369
1.40004640596887
1.40004641716484
1.40004643402138
1.40004645498289
1.40004647618317
1.40004649225867
1.40004649789255
1.40004648923217
1.40004646519567
1.40004642898126
1.40004638597209
1.40004634470123
1.40004631432281
1.40004630260707
1.40004631410859
1.40004634862614
1.40004640095429