/*--------------------------------*- C++ -*----------------------------------*\
| =========                 |                                                 |
| \\      /  F ield         | OpenFOAM: The Open Source CFD Toolbox           |
|  \\    /   O peration     | Version:  v1712                                 |
|   \\  /    A nd           | Web:      www.OpenFOAM.com                      |
|    \\/     M anipulation  |                                                 |
\*---------------------------------------------------------------------------*/
FoamFile
{
    version     2.0;
    format      ascii;
    class       volScalarField;
    location    "4";
    object      Ma;
}
// * * * * * * * * * * * * * * * * * * * * * * * * * * * * * * * * * * * * * //

dimensions      [0 0 0 0 0 0 0];


internalField   nonuniform List<scalar> 
160000
(
0.394609275375657
0.394609269694761
0.394609264108361
0.394609258612508
0.394609253214034
0.394609247909005
0.394609242701828
0.394609237532705
0.394609232525141
0.394609227618403
0.39460922281719
0.394609218120796
0.394609213532147
0.394609209051323
0.394609204678593
0.394609200417471
0.394609196262785
0.394609192220781
0.394609188286316
0.394609184523461
0.394609180806996
0.394609177202388
0.394609173703476
0.394609170320192
0.394609167044204
0.394609163885503
0.394609160836883
0.394609157911981
0.39460915511947
0.394609152420701
0.394609149834167
0.394609147367726
0.394609145016733
0.39460914278882
0.394609140674959
0.394609138686006
0.394609136784388
0.3946091350346
0.394609133400784
0.394609131889969
0.394609130493663
0.394609129223176
0.394609128068094
0.394609127038256
0.394609126124536
0.394609125336753
0.394609124666592
0.394609124122418
0.394609123692653
0.394609123395505
0.394609123219799
0.394609123172171
0.394609123246289
0.394609123447453
0.394609123770911
0.394609124218995
0.394609124789433
0.39460912548173
0.394609126300277
0.394609127231088
0.394609128280031
0.394609129443599
0.394609130725526
0.394609132119262
0.394609133631171
0.394609135253187
0.394609136994674
0.394609138846151
0.394609140815269
0.394609142896442
0.394609145124295
0.394609147436756
0.394609149869648
0.39460915241454
0.394609155078831
0.394609157857227
0.394609160752812
0.39460916375946
0.394609166856564
0.394609170084517
0.394609173433157
0.394609176889057
0.394609180458589
0.394609184132463
0.394609187918611
0.394609191806557
0.394609195805443
0.394609199846469
0.39460920405872
0.394609208372846
0.394609212799821
0.394609217324445
0.394609221961686
0.394609226694241
0.394609231536345
0.39460923646962
0.394609241509476
0.394609246637669
0.394609251926176
0.394609257238739
0.394609262647901
0.394609268138163
0.394609273721567
0.394609279385771
0.394609285140337
0.39460929097489
0.394609296897172
0.394609302898433
0.394609308984407
0.394609315145392
0.394609321386146
0.394609327700843
0.394609334091088
0.394609340554097
0.394609347090795
0.394609353699698
0.394609360381535
0.394609367135158
0.394609373959048
0.394609380851853
0.394609387810897
0.394609394834116
0.394609401917549
0.39460940905887
0.394609416253856
0.394609423500078
0.394609430792387
0.394609438129425
0.394609445506286
0.394609452921641
0.394609460368345
0.39460946784542
0.394609475285055
0.39460948280464
0.39460949033457
0.39460949787071
0.394609505400091
0.394609512920515
0.394609520418877
0.39460952789466
0.394609535336927
0.394609542749579
0.394609550124626
0.3946095575278
0.394609564833984
0.39460957211016
0.394609579351329
0.394609586566707
0.394609593748827
0.394609600905238
0.394609608025538
0.39460961511464
0.394609622161144
0.394609629169202
0.394609636127527
0.394609643042229
0.394609649905015
0.394609656723244
0.394609663494071
0.394609670226645
0.39460967692343
0.394609683595877
0.394609690251102
0.394609696900401
0.394609703552674
0.394609710217521
0.394609716900911
0.394609723601485
0.394609730325711
0.394609737073761
0.39460974385399
0.394609750654731
0.394609757473755
0.394609764292773
0.394609771105452
0.394609777885187
0.394609784622912
0.39460979128739
0.3946097978701
0.39460980433988
0.394609810691532
0.394609816895373
0.394609822949457
0.394609828823189
0.394609834516847
0.394609840001758
0.394609845281793
0.394609850332398
0.394609855164426
0.394609859759301
0.394609864136762
0.394609868284984
0.394609872231757
0.394609875972572
0.394609879541469
0.394609882938962
0.394609886204897
0.394609889342866
0.394609892392807
0.394609895358816
0.394609898277984
0.394609901151334
0.394609904008911
0.394609906846871
0.394609909687522
0.394609912522198
0.394609915365533
0.394609918204496
0.394609921046536
0.394609923878221
0.394609926699823
0.394609929497974
0.39460993226746
0.394609934995164
0.39460993766926
0.394609940273952
0.394609942787837
0.394609945190301
0.394609947454707
0.394609949566861
0.39460995151007
0.394609953284852
0.39460995488953
0.394609956335511
0.394609957626748
0.394609958776192
0.394609959791864
0.394609960686319
0.394609961472482
0.394609962164309
0.394609962780147
0.394609963333719
0.394609963847707
0.394609964333144
0.394609964811595
0.394609965289549
0.394609965785454
0.394609966299805
0.394609966845495
0.394609967417492
0.394609968021707
0.394609968646185
0.394609969288376
0.39460996993143
0.394609970563572
0.39460997116457
0.394609971720183
0.394609972224911
0.394609972622896
0.394609972929912
0.394609973121728
0.394609973200842
0.394609973151483
0.394609972980541
0.394609972677317
0.394609972256077
0.394609971710886
0.394609971065192
0.39460997031946
0.394609969503833
0.394609968623813
0.394609967711445
0.394609966772876
0.394609965836677
0.394609964905495
0.394609964002493
0.3946099631256
0.394609962289654
0.394609961487779
0.394609960727308
0.394609959996033
0.394609959293832
0.394609958603642
0.3946099579182
0.39460995721702
0.394609956487502
0.394609955707859
0.394609954863298
0.394609953933724
0.394609952905188
0.394609951761933
0.394609950492586
0.394609949085296
0.394609947529876
0.394609945816773
0.394609943937721
0.394609941889632
0.394609939674121
0.394609937303563
0.394609934794933
0.394609932173192
0.394609929459353
0.394609926676456
0.39460992383751
0.39460992095874
0.394609918046306
0.394609915113445
0.394609912162374
0.394609909205073
0.394609906239472
0.394609903275697
0.3946099003064
0.394609897337839
0.394609894356798
0.394609891365311
0.394609888343105
0.394609885287049
0.394609882171065
0.394609878987156
0.394609875704716
0.394609872313827
0.394609868783199
0.394609865103093
0.394609861245173
0.394609857202742
0.394609852953239
0.394609848494467
0.394609843811253
0.394609838907579
0.394609833776661
0.394609828429347
0.394609822866641
0.394609817104983
0.394609811151201
0.394609805025293
0.394609798736034
0.394609792305428
0.39460978574273
0.394609779073493
0.394609772308866
0.394609765477311
0.394609758590207
0.394609751678027
0.394609744746425
0.394609737823119
0.394609730905568
0.394609724016789
0.394609717145319
0.394609710309226
0.394609703490487
0.394609696702824
0.394609689922432
0.394609683158745
0.394609676384848
0.394609669609305
0.394609662804731
0.394609655978768
0.394609649108497
0.394609642203079
0.394609635244422
0.394609628244442
0.394609621190753
0.394609614097027
0.394609606953434
0.394609599773489
0.394609592551104
0.394609585297499
0.394609578007076
0.394609570687871
0.394609563333245
0.394609555948803
0.394609548526432
0.394609541070244
0.394609533516521
0.394609525989858
0.394609518429606
0.394609510843837
0.394609503233697
0.394609495610679
0.394609487979091
0.394609480350668
0.394609472730584
0.394609465130335
0.394609457555576
0.394609450073464
0.394609442569542
0.394609435108229
0.394609427692254
0.394609420328488
0.394609413015969
0.39460940576148
0.394609398563746
0.394609391429108
0.394609384355831
0.394609377351003
0.394609370411653
0.394609363545289
0.39460935674818
0.394609350027401
0.394609343378104
0.394609336807475
0.394609330309941
0.394609323890992
0.394609317545361
0.394609311279291
0.394609305089234
0.394609298980182
0.394609292949467
0.394609287005731
0.394609281144462
0.394609193991385
0.394609188467179
0.394609183032453
0.394609177683823
0.394609172427097
0.394609167259479
0.394609162184394
0.394609157136994
0.394609152253298
0.394609147467504
0.39460914278418
0.39460913820379
0.394609133729439
0.394609129362101
0.394609125102603
0.394609120953764
0.394609116912038
0.394609112981904
0.394609109159421
0.394609105513041
0.394609101905403
0.394609098406635
0.394609095012108
0.394609091728473
0.39460908854941
0.394609085482492
0.394609082522233
0.394609079679879
0.39460907695908
0.3946090743334
0.394609071815445
0.394609069412142
0.394609067120021
0.39460906494517
0.394609062880496
0.394609060935443
0.394609059080875
0.394609057366719
0.394609055765624
0.394609054283593
0.394609052913557
0.394609051666524
0.394609050532383
0.394609049520555
0.394609048623026
0.394609047848202
0.3946090471885
0.394609046651838
0.394609046227311
0.394609045931494
0.394609045754235
0.39460904570158
0.394609045767763
0.394609045957555
0.394609046266844
0.394609046697772
0.394609047248793
0.394609047919102
0.394609048713577
0.394609049618505
0.394609050639939
0.3946090517747
0.394609053025998
0.39460905438811
0.394609055866459
0.394609057453312
0.394609059157484
0.394609060969597
0.394609062896101
0.394609064932116
0.394609067103807
0.394609069363641
0.394609071739021
0.394609074222749
0.394609076820664
0.394609079528637
0.394609082348471
0.39460908527497
0.394609088293358
0.394609091431696
0.394609094685038
0.394609098042365
0.394609101508311
0.394609105076487
0.394609108752845
0.3946091125305
0.394609116416594
0.394609120338086
0.394609124435332
0.39460912863455
0.394609132944758
0.394609137352594
0.394609141870397
0.394609146482131
0.394609151200298
0.394609156007
0.394609160916171
0.394609165909944
0.394609171066353
0.394609176235716
0.394609181497906
0.394609186836825
0.394609192265321
0.394609197770979
0.394609203364525
0.394609209035487
0.394609214792601
0.394609220627466
0.394609226546659
0.394609232541649
0.394609238617575
0.394609244769426
0.394609250999698
0.394609257305873
0.394609263689291
0.394609270147732
0.394609276681348
0.394609283287272
0.394609289963059
0.394609296704607
0.394609303507887
0.394609310368112
0.394609317280147
0.394609324238787
0.394609331239429
0.394609338277231
0.394609345347712
0.394609352447967
0.394609359575138
0.394609366727457
0.394609373901558
0.39460938109663
0.39460938824387
0.394609395474799
0.39460940271847
0.394609409971895
0.394609417227005
0.394609424481242
0.394609431725447
0.39460943895709
0.394609446167369
0.394609453357064
0.394609460518568
0.394609467720179
0.394609474822588
0.39460948189412
0.394609488928013
0.394609495928982
0.394609502888556
0.394609509812766
0.394609516692894
0.394609523536411
0.394609530337029
0.394609537105078
0.394609543836059
0.394609550544985
0.394609557230086
0.394609563906153
0.394609570574509
0.394609577248769
0.394609583931163
0.394609590633066
0.394609597356187
0.394609604106727
0.394609610882342
0.394609617683108
0.394609624504318
0.394609631337369
0.394609638176825
0.394609645010215
0.394609651834093
0.394609658630935
0.394609665393913
0.394609672102463
0.394609678749059
0.394609685307544
0.394609691771023
0.394609698111231
0.394609704324521
0.394609710384891
0.394609716294943
0.394609722033223
0.394609727609297
0.394609733003176
0.394609738228775
0.394609743269523
0.394609748142118
0.394609752832153
0.394609757359853
0.394609761712099
0.394609765912548
0.394609769948837
0.394609773846716
0.394609777596004
0.394609781224264
0.394609784723324
0.394609788125569
0.394609791426265
0.394609794658855
0.394609797822163
0.39460980095014
0.394609804042184
0.394609807128218
0.39460981020508
0.394609813295781
0.394609816391766
0.394609819506438
0.394609822622989
0.394609825743305
0.394609828846237
0.394609831921587
0.394609834944937
0.394609837898305
0.394609840757559
0.394609843500336
0.394609846104575
0.394609848544606
0.394609850800395
0.394609852847177
0.394609854677732
0.39460985628312
0.394609857676667
0.394609858871503
0.39460985989843
0.394609860780506
0.394609861552246
0.39460986224086
0.394609862876522
0.394609863485653
0.394609864091999
0.394609864718863
0.394609865380208
0.394609866095744
0.394609866868544
0.394609867710128
0.39460986861372
0.394609869584017
0.394609870605683
0.394609871676989
0.394609872777322
0.394609873899779
0.394609875018843
0.394609876122519
0.394609877184978
0.394609878189477
0.394609879111323
0.394609879942044
0.39460988065582
0.394609881233917
0.394609881673988
0.394609881965208
0.394609882110652
0.394609882100313
0.39460988194264
0.394609881625522
0.39460988116205
0.394609880541838
0.394609879784363
0.394609878884339
0.394609877868477
0.394609876738502
0.39460987552624
0.394609874238121
0.394609872906981
0.394609871540136
0.394609870170012
0.394609868803428
0.394609867467684
0.394609866168159
0.394609864926974
0.394609863745651
0.394609862639125
0.394609861603348
0.394609860643857
0.394609859749712
0.394609858915943
0.394609858124035
0.394609857359178
0.394609856596289
0.394609855812551
0.394609854978866
0.394609854067313
0.394609853046915
0.394609851887292
0.394609850559141
0.394609849036219
0.394609847300574
0.394609845342296
0.394609843165842
0.394609840782996
0.394609838216436
0.394609835487199
0.394609832621792
0.394609829639228
0.394609826565021
0.394609823415644
0.394609820215998
0.394609816978687
0.394609813725777
0.394609810462694
0.394609807206145
0.39460980395239
0.39460980071074
0.394609797468742
0.394609794229884
0.39460979097396
0.394609787699896
0.394609784383171
0.394609781019828
0.394609777582961
0.394609774068902
0.394609770451792
0.394609766728964
0.394609762877789
0.394609758897596
0.394609754769443
0.394609750493759
0.394609746054604
0.394609741453472
0.394609736677493
0.394609731729837
0.394609726600923
0.394609721295905
0.394609715809012
0.39460971014824
0.394609704310571
0.39460969830803
0.394609692141013
0.394609685828218
0.394609679374933
0.394609672806103
0.394609666129425
0.394609659374214
0.394609652545278
0.394609645672666
0.394609638756477
0.394609631826874
0.394609624878806
0.394609617941547
0.394609611007044
0.394609604101827
0.394609597212557
0.394609590360799
0.394609583527388
0.394609576729937
0.394609569944196
0.394609563181257
0.394609556416246
0.394609549656692
0.394609542878635
0.394609536088631
0.394609529266576
0.394609522419741
0.394609515530805
0.394609508607708
0.394609501639988
0.394609494635443
0.394609487587367
0.39460948050328
0.394609473378508
0.394609466219816
0.394609459022829
0.394609451792855
0.39460944446363
0.394609437172647
0.394609429855473
0.394609422518609
0.394609415165294
0.394609407804435
0.394609400441427
0.394609393084325
0.394609385739039
0.394609378412329
0.394609371109934
0.394609363901217
0.394609356658401
0.394609349448338
0.394609342274424
0.394609335140644
0.394609328047433
0.394609321000102
0.394609313999524
0.394609307051721
0.394609300157341
0.394609293324034
0.394609286551261
0.394609279847557
0.394609273211058
0.394609266649915
0.394609260160949
0.394609253752096
0.39460924741836
0.394609241165457
0.394609234988209
0.394609228892053
0.39460922287259
0.394609216934064
0.394609211072815
0.394609205296227
0.394609199599706
0.394609146288845
0.394609140861675
0.394609135521392
0.394609130265294
0.394609125098327
0.394609120018689
0.394609115028839
0.394609110059773
0.394609105256629
0.394609100549395
0.394609095942092
0.39460909143589
0.394609087033868
0.394609082737375
0.394609078547869
0.394609074467591
0.39460907049452
0.394609066631734
0.394609062876875
0.39460905930161
0.394609055759933
0.394609052325327
0.394609048994709
0.394609045771805
0.394609042652302
0.394609039641487
0.39460903673581
0.394609033944213
0.394609031265619
0.394609028685329
0.394609026210272
0.394609023846465
0.394609021591693
0.394609019450428
0.39460901741743
0.394609015500478
0.394609013678891
0.394609011987972
0.394609010408774
0.394609008946059
0.394609007594002
0.394609006362978
0.394609005243384
0.39460900424393
0.394609003357872
0.394609002592085
0.394609001939894
0.39460900140856
0.394609000988092
0.394609000693271
0.39460900051515
0.394609000458872
0.394609000519449
0.394609000700993
0.394609001000042
0.394609001418573
0.394609001955611
0.394609002610249
0.394609003387692
0.394609004274715
0.3946090052774
0.394609006392992
0.394609007624155
0.394609008966085
0.394609010423181
0.394609011988234
0.39460901366935
0.39460901545751
0.394609017358018
0.394609019366872
0.394609021501859
0.394609023729881
0.394609026069952
0.39460902851625
0.394609031073122
0.39460903373765
0.394609036510375
0.39460903938692
0.394609042358251
0.39460904544058
0.394609048633995
0.394609051929898
0.394609055331083
0.394609058833948
0.394609062442499
0.394609066152978
0.394609069970332
0.394609073818597
0.394609077845783
0.394609081975009
0.394609086213035
0.394609090548292
0.394609094990753
0.394609099525862
0.394609104164364
0.394609108889384
0.394609113713554
0.394609118619929
0.394609123691294
0.39460912876823
0.394609133936408
0.394609139179572
0.394609144510956
0.394609149918254
0.394609155412724
0.394609160983817
0.394609166640539
0.39460917237468
0.394609178193008
0.394609184087819
0.394609190064319
0.394609196118149
0.394609202252199
0.394609208464105
0.394609214755119
0.394609221122211
0.39460922756478
0.394609234078501
0.394609240660372
0.394609247304341
0.394609254005888
0.394609260758641
0.394609267557417
0.394609274395261
0.394609281268146
0.394609288169618
0.394609295096325
0.394609302044002
0.394609309011574
0.394609315996237
0.39460932299756
0.39460933001384
0.394609336975449
0.394609344023698
0.394609351086641
0.39460935816143
0.39460936524411
0.394609372330993
0.394609379416271
0.394609386495018
0.394609393560483
0.394609400610562
0.394609407638719
0.394609414715355
0.394609421691405
0.394609428636479
0.394609435543365
0.394609442413453
0.394609449238281
0.394609456022955
0.394609462760642
0.394609469460824
0.39460947612114
0.394609482756099
0.394609489365485
0.39460949596997
0.394609502571031
0.39460950918752
0.394609515821864
0.3946095224895
0.39460952919051
0.394609535935151
0.39460954272005
0.394609549548299
0.394609556409202
0.394609563297083
0.394609570199351
0.394609577102822
0.394609583994355
0.394609590854793
0.394609597674091
0.394609604432088
0.394609611119772
0.394609617716091
0.394609624214236
0.394609630590653
0.394609636841935
0.39460964294339
0.394609648895531
0.394609654675882
0.394609660292087
0.39460966572758
0.39460967099945
0.394609676094332
0.394609681035223
0.394609685813218
0.394609690453018
0.394609694946047
0.394609699317621
0.394609703556919
0.394609707688936
0.394609711699686
0.394609715612701
0.394609719413396
0.394609723124751
0.394609726732706
0.394609730264709
0.394609733710314
0.394609737098091
0.394609740422582
0.394609743714357
0.394609746970451
0.39460975021918
0.394609753456747
0.394609756705667
0.394609759957195
0.394609763224033
0.394609766487625
0.39460976974738
0.394609772978835
0.394609776166573
0.394609779280981
0.394609782297226
0.394609785185873
0.394609787919436
0.394609790474793
0.39460979282705
0.39460979496098
0.394609796856136
0.39460979851175
0.394609799923041
0.394609801109713
0.394609802091275
0.394609802908345
0.39460980359318
0.394609804191824
0.394609804741147
0.394609805280237
0.394609805841612
0.394609806452991
0.394609807138727
0.394609807911056
0.394609808786584
0.394609809762186
0.394609810842603
0.394609812012305
0.394609813267639
0.394609814583474
0.394609815949766
0.394609817336684
0.394609818730684
0.394609820098636
0.394609821424483
0.394609822678299
0.394609823842708
0.394609824891532
0.394609825828894
0.394609826608101
0.394609827240018
0.394609827717937
0.394609828035406
0.394609828199098
0.394609828201611
0.394609828052728
0.394609827739604
0.394609827274545
0.394609826643924
0.394609825863979
0.394609824924162
0.394609823847123
0.394609822629786
0.394609821301589
0.394609819866618
0.394609818358342
0.394609816784677
0.394609815182303
0.394609813561672
0.394609811956701
0.394609810379061
0.394609808859449
0.394609807407144
0.394609806046351
0.39460980478095
0.394609803624939
0.394609802573903
0.394609801628846
0.394609800774712
0.394609799998609
0.394609799274414
0.394609798576109
0.394609797868576
0.394609797115881
0.394609796277334
0.394609795312178
0.394609794181205
0.394609792849538
0.394609791292579
0.394609789495081
0.394609787456921
0.394609785184781
0.394609782696298
0.394609780007998
0.394609777144661
0.394609774126182
0.394609770982258
0.394609767734449
0.394609764413921
0.394609761038341
0.394609757634967
0.394609754212598
0.394609750791389
0.394609747369215
0.394609743957433
0.394609740544218
0.394609737134877
0.39460973370988
0.394609730270731
0.394609726794722
0.394609723281658
0.39460971970753
0.394609716073485
0.394609712357318
0.394609708561406
0.394609704667052
0.39460970067822
0.394609696579116
0.394609692373177
0.394609688045225
0.394609683596697
0.394609679011982
0.394609674290468
0.394609669416316
0.394609664387802
0.394609659190975
0.394609653825986
0.394609648282178
0.394609642565285
0.394609636670294
0.39460963061154
0.394609624390162
0.394609618027904
0.394609611528237
0.394609604917719
0.394609598198388
0.394609591400002
0.39460958452259
0.394609577599928
0.39460957062976
0.394609563648053
0.394609556652252
0.394609549676922
0.394609542715016
0.394609535796386
0.394609528907039
0.394609522071791
0.394609515269305
0.394609508514783
0.394609501783368
0.394609495083418
0.394609488388376
0.394609481702608
0.394609475001652
0.394609468289144
0.394609461542888
0.394609454766938
0.394609447947714
0.394609441090076
0.394609434186357
0.394609427243155
0.394609420257304
0.394609413236026
0.39460940617809
0.394609399089292
0.394609391901433
0.394609384761031
0.39460937760055
0.394609370424339
0.394609363237391
0.394609356045874
0.394609348856515
0.394609341674104
0.394609334505942
0.394609327354745
0.394609320227173
0.394609313194234
0.394609306118816
0.394609299069624
0.394609292051315
0.394609285065397
0.394609278113932
0.394609271200626
0.394609264328151
0.394609257501651
0.394609250723439
0.394609244000859
0.394609237334965
0.394609230734456
0.394609224198625
0.394609217736115
0.394609211345076
0.394609205034085
0.394609198798835
0.394609192645616
0.394609186569678
0.394609180576192
0.394609174660268
0.394609168825632
0.394609163067975
0.394609157393708
0.394609151798388
0.394609100684619
0.394609095351216
0.394609090102537
0.394609084936551
0.394609079857373
0.394609074864088
0.394609069958047
0.394609065065967
0.394609060342373
0.394609055712919
0.394609051180828
0.39460904674779
0.394609042416843
0.394609038189521
0.394609034068014
0.394609030053855
0.394609026146788
0.394609022348446
0.394609018658489
0.394609015151679
0.394609011673243
0.394609008299997
0.394609005030684
0.394609001865923
0.394608998803572
0.394608995846497
0.39460899299321
0.394608990250023
0.394608987610427
0.394608985073685
0.394608982640111
0.394608980314665
0.394608978096475
0.394608975988209
0.394608973986675
0.394608972097897
0.394608970310896
0.394608968643645
0.394608967086813
0.394608965643862
0.394608964310314
0.394608963095748
0.394608961991186
0.394608961004426
0.394608960130214
0.394608959373669
0.394608958729191
0.394608958203264
0.394608957787042
0.394608957493113
0.394608957313993
0.394608957253707
0.394608957308213
0.39460895748087
0.394608957768914
0.394608958174233
0.394608958696416
0.394608959334566
0.394608960094126
0.394608960962667
0.394608961946177
0.394608963042445
0.394608964253483
0.394608965575557
0.394608967011855
0.394608968555812
0.394608970214712
0.394608971979939
0.394608973855543
0.39460897583832
0.394608977936507
0.394608980133973
0.394608982440177
0.394608984850607
0.394608987368011
0.39460898999076
0.394608992718128
0.394608995546611
0.394608998473983
0.394609001502355
0.394609004637676
0.394609007874124
0.394609011212589
0.394609014652389
0.394609018195447
0.394609021841226
0.394609025592067
0.394609029369232
0.394609033328368
0.394609037389749
0.394609041557446
0.394609045821898
0.394609050190393
0.394609054650201
0.394609059210005
0.394609063854399
0.394609068594439
0.394609073414752
0.394609078402597
0.394609083388899
0.394609088464903
0.394609093614739
0.394609098851699
0.394609104163991
0.39460910956304
0.39460911503851
0.394609120599293
0.394609126237604
0.394609131960081
0.394609137760032
0.394609143642464
0.394609149603735
0.394609155646784
0.394609161769408
0.394609167972338
0.394609174251679
0.394609180605803
0.394609187028917
0.39460919351744
0.394609200063456
0.394609206662016
0.394609213305392
0.394609219988519
0.394609226702919
0.394609233445354
0.394609240208009
0.394609246988851
0.394609253782421
0.394609260589524
0.39460926740633
0.394609274235305
0.394609281073534
0.394609287850601
0.394609294717686
0.394609301601818
0.394609308500017
0.394609315412483
0.394609322334277
0.39460932926302
0.394609336191214
0.394609343114128
0.394609350026575
0.394609356923215
0.394609363876409
0.394609370727178
0.394609377546459
0.394609384327126
0.394609391067623
0.394609397760106
0.394609404409211
0.394609411010574
0.394609417575985
0.394609424107326
0.394609430623214
0.394609437127653
0.394609443646597
0.394609450184302
0.394609456762938
0.394609463385273
0.394609470067619
0.394609476806953
0.394609483611279
0.394609490471045
0.394609497385784
0.394609504336549
0.394609511312274
0.394609518291605
0.394609525255523
0.394609532183157
0.394609539050793
0.394609545843672
0.394609552539283
0.394609559125996
0.394609565582772
0.394609571904355
0.394609578070846
0.394609584083041
0.394609589920853
0.394609595589727
0.394609601071553
0.394609606379501
0.39460961150239
0.394609616464999
0.394609621260846
0.394609625921883
0.39460963044692
0.394609634868087
0.394609639182345
0.39460964341921
0.394609647569667
0.394609651659128
0.39460965567149
0.394609659627366
0.394609663507537
0.394609667329926
0.394609671074522
0.394609674763453
0.394609678380441
0.394609681948555
0.394609685457676
0.394609688934101
0.394609692371878
0.394609695796666
0.394609699203348
0.394609702613005
0.394609706016223
0.394609709424481
0.394609712817411
0.394609716192162
0.394609719521694
0.394609722786496
0.394609725953454
0.394609728992939
0.394609731872418
0.394609734561343
0.394609737037111
0.394609739276962
0.394609741271584
0.394609743005996
0.394609744486717
0.394609745713494
0.394609746711992
0.394609747507162
0.394609748147962
0.394609748674188
0.394609749141617
0.39460974959505
0.394609750080734
0.394609750635679
0.394609751290098
0.39460975206808
0.394609752979048
0.394609754035662
0.394609755228008
0.394609756553635
0.394609757988165
0.394609759519607
0.394609761113348
0.394609762751396
0.39460976439533
0.394609766025696
0.394609767602651
0.394609769107189
0.394609770506597
0.394609771784297
0.394609772917368
0.39460977391159
0.394609774720873
0.394609775371605
0.39460977585918
0.394609776180866
0.394609776348409
0.394609776356629
0.394609776216643
0.394609775915177
0.394609775463606
0.394609774845156
0.394609774072154
0.394609773128187
0.394609772030444
0.394609770769881
0.394609769371823
0.394609767836642
0.394609766196789
0.394609764459523
0.394609762664451
0.39460976082465
0.394609758979609
0.394609757146601
0.39460975536419
0.394609753649056
0.394609752034329
0.394609750531831
0.3946097491641
0.394609747933698
0.394609746848178
0.39460974589688
0.394609745069903
0.394609744341447
0.394609743683773
0.394609743057431
0.394609742420216
0.394609741723563
0.394609740918179
0.394609739956715
0.394609738797195
0.394609737409431
0.394609735773219
0.394609733883433
0.394609731740642
0.394609729356114
0.394609726740528
0.394609723915522
0.394609720900244
0.394609717726554
0.394609714418937
0.394609711012811
0.394609707529328
0.394609703999854
0.394609700436028
0.394609696861336
0.394609693275545
0.394609689692551
0.394609686101819
0.394609682511189
0.394609678902431
0.39460967528023
0.394609671624219
0.394609667938386
0.394609664202022
0.394609660421454
0.39460965657848
0.394609652680804
0.394609648714093
0.394609644687319
0.394609640588456
0.394609636424545
0.39460963218197
0.394609627862882
0.394609623449722
0.394609618938772
0.3946096143085
0.394609609550649
0.394609604643287
0.394609599578629
0.394609594338338
0.394609588921473
0.394609583317361
0.394609577535222
0.394609571571426
0.394609565443454
0.394609559149726
0.394609552712992
0.394609546131921
0.394609539435051
0.394609532621785
0.394609525728543
0.394609518755225
0.394609511743549
0.394609504696047
0.394609497654646
0.394609490618661
0.394609483626141
0.394609476668885
0.394609469779476
0.394609462940587
0.394609456172436
0.394609449451503
0.394609442787871
0.394609436153526
0.39460942955122
0.394609422952827
0.394609416358516
0.394609409741479
0.394609403101683
0.394609396422392
0.394609389705136
0.394609382941035
0.394609376135321
0.394609369286058
0.394609362400553
0.394609355480534
0.394609348531963
0.394609341484746
0.39460933449464
0.394609327491024
0.394609320475861
0.394609313455874
0.394609306434356
0.394609299419347
0.39460929241225
0.394609285421764
0.394609278446472
0.394609271494193
0.394609264637598
0.394609257730036
0.394609250842064
0.394609243979861
0.394609237142463
0.39460923033359
0.394609223555218
0.394609216811757
0.39460921010731
0.394609203445754
0.394609196833965
0.394609190274536
0.394609183776208
0.394609177339364
0.394609170973086
0.394609164676864
0.394609158459979
0.39460915231884
0.39460914626051
0.394609140280794
0.394609134384869
0.394609128567455
0.394609122831888
0.394609117173278
0.394609111597073
0.394609106099
0.394609056358994
0.394609051117484
0.394609045958957
0.39460904088202
0.394609035889951
0.394609030982619
0.394609026160281
0.394609021346229
0.394609016702564
0.39460901215147
0.394609007695281
0.39460900333605
0.394608999076767
0.394608994918883
0.394608990865361
0.394608986916867
0.39460898307491
0.394608979339669
0.394608975713053
0.394608972271935
0.394608968854785
0.394608965540839
0.394608962330786
0.394608959222208
0.394608956215189
0.394608953310127
0.394608950507643
0.394608947811289
0.394608945209047