/*--------------------------------*- C++ -*----------------------------------*\
| =========                 |                                                 |
| \\      /  F ield         | OpenFOAM: The Open Source CFD Toolbox           |
|  \\    /   O peration     | Version:  v1712                                 |
|   \\  /    A nd           | Web:      www.OpenFOAM.com                      |
|    \\/     M anipulation  |                                                 |
\*---------------------------------------------------------------------------*/
FoamFile
{
    version     2.0;
    format      ascii;
    class       volScalarField;
    location    "4";
    object      p;
}
// * * * * * * * * * * * * * * * * * * * * * * * * * * * * * * * * * * * * * //

dimensions      [1 -1 -2 0 0 0 0];


internalField   nonuniform List<scalar> 
160000
(
0.750021179674058
0.750021177284419
0.750021174907276
0.750021172545186
0.750021170199907
0.75002116787475
0.750021165572198
0.750021163296519
0.750021161049039
0.750021158834169
0.750021156654928
0.750021154514861
0.750021152416456
0.750021150361915
0.75002114835289
0.75002114639003
0.750021144473944
0.750021142603818
0.750021140779681
0.750021138999768
0.750021137265899
0.750021135576484
0.750021133932272
0.750021132332832
0.750021130779426
0.750021129272113
0.750021127812103
0.750021126399729
0.750021125035996
0.750021123719596
0.75002112245133
0.750021121231745
0.750021120061395
0.750021118941195
0.750021117871816
0.750021116854463
0.750021115889909
0.750021114981264
0.750021114129651
0.750021113336805
0.750021112604522
0.75002111193475
0.750021111329795
0.750021110791772
0.750021110323117
0.750021109926044
0.750021109602911
0.750021109355508
0.750021109185685
0.750021109094607
0.750021109083097
0.750021109150927
0.750021109297505
0.750021109521074
0.750021109819369
0.750021110189181
0.750021110626804
0.750021111128215
0.750021111689062
0.750021112305269
0.750021112972839
0.750021113688619
0.750021114449877
0.750021115254914
0.750021116102638
0.75002111699296
0.750021117926219
0.750021118903485
0.750021119926128
0.750021120995717
0.750021122114232
0.750021123281529
0.750021124499452
0.750021125769123
0.750021127091761
0.75002112846796
0.75002112989824
0.75002113138245
0.750021132919795
0.750021134510864
0.750021136153753
0.750021137846731
0.750021139587443
0.750021141374361
0.750021143205215
0.750021145079089
0.750021146994172
0.750021148950421
0.750021150944526
0.750021152976342
0.750021155044013
0.750021157146535
0.750021159281574
0.750021161447064
0.750021163639849
0.75002116585671
0.7500211680939
0.750021170347288
0.750021172612764
0.750021174887849
0.750021177169048
0.750021179453117
0.750021181738201
0.750021184022597
0.750021186305983
0.75002118858813
0.750021190869734
0.750021193151307
0.750021195433822
0.750021197718062
0.750021200005326
0.750021202297082
0.750021204595191
0.750021206901813
0.750021209218948
0.750021211548389
0.750021213890809
0.750021216246041
0.750021218612117
0.750021220986085
0.750021223363074
0.750021225737234
0.750021228101089
0.750021230446324
0.750021232763368
0.750021235041924
0.750021237270942
0.750021239438739
0.750021241533367
0.750021243542275
0.750021245453033
0.750021247252667
0.750021248928716
0.750021250466322
0.750021251853402
0.750021253077389
0.750021254127699
0.750021254994628
0.750021255672236
0.750021256157013
0.750021256450605
0.750021256557437
0.750021256486689
0.750021256248604
0.750021255857696
0.750021255324953
0.750021254660462
0.75002125386991
0.750021252955506
0.750021251914422
0.750021250740417
0.750021249424407
0.750021247956248
0.750021246327021
0.750021244530307
0.750021242565188
0.750021240436711
0.750021238158741
0.750021235752774
0.750021233249883
0.750021230687806
0.750021228111631
0.750021225570096
0.750021223115562
0.750021220798341
0.750021218664796
0.750021216752845
0.750021215091962
0.750021213699552
0.750021212580945
0.750021211727672
0.750021211117884
0.750021210715198
0.750021210470963
0.750021210326572
0.750021210214385
0.750021210059784
0.750021209783514
0.750021209305715
0.750021208548049
0.75002120743683
0.750021205903327
0.750021203885832
0.750021201329311
0.750021198187896
0.750021194425134
0.750021190017386
0.750021184954213
0.750021179241081
0.750021172899083
0.750021165965802
0.750021158494121
0.750021150551084
0.75002114221591
0.750021133577197
0.750021124730233
0.750021115772837
0.750021106802314
0.750021097910879
0.750021089182772
0.75002108069079
0.750021072494833
0.750021064640555
0.750021057159739
0.750021050070752
0.750021043380055
0.750021037083274
0.750021031167073
0.750021025609876
0.750021020383714
0.750021015454816
0.750021010785207
0.75002100633305
0.750021002053746
0.750020997899515
0.750020993819229
0.750020989757344
0.750020985655303
0.750020981454902
0.750020977104895
0.750020972566813
0.750020967818947
0.750020962855893
0.750020957686687
0.750020952331743
0.750020946821704
0.750020941196974
0.750020935508755
0.750020929818936
0.750020924199545
0.750020918730448
0.750020913496185
0.750020908581955
0.750020904069578
0.750020900033519
0.750020896537141
0.750020893629974
0.750020891345056
0.750020889697681
0.750020888683583
0.750020888279268
0.750020888441038
0.750020889106722
0.750020890196006
0.750020891614587
0.750020893257821
0.750020895018119
0.750020896834573
0.750020898473412
0.750020899936118
0.750020901111176
0.750020901939938
0.750020902372398
0.750020902385377
0.750020901980242
0.750020901179682
0.750020900030199
0.750020898600002
0.750020896975729
0.750020895258203
0.750020893557237
0.750020891986543
0.750020890657726
0.750020889676075
0.750020889135705
0.750020889117238
0.750020889684509
0.750020890883896
0.750020892742106
0.750020895266678
0.75002089844514
0.750020902246517
0.750020906622227
0.750020911508742
0.750020916830194
0.750020922502201
0.750020928435761
0.750020934541523
0.750020940733934
0.750020946934618
0.750020953075025
0.750020959097337
0.750020964954711
0.750020970610445
0.750020976038396
0.750020981224115
0.750020986168095
0.750020990888185
0.750020995420473
0.750020999815765
0.750021004133695
0.750021008435712
0.750021012780803
0.750021017223661
0.750021021815127
0.750021026602339
0.750021031628687
0.750021036932881
0.7500210425482
0.750021048501442
0.750021054812195
0.750021061492005
0.750021068543567
0.750021075959883
0.75002108372326
0.750021091804634
0.750021100162869
0.750021108744831
0.75002111748576
0.750021126310658
0.750021135136084
0.750021143872956
0.750021152429448
0.75002116071443
0.750021168640659
0.750021176128059
0.75002118310649
0.750021189518351
0.750021195320393
0.750021200485163
0.750021205001276
0.750021208873285
0.750021212120309
0.750021214774568
0.750021216879313
0.750021218487214
0.750021219658987
0.750021220462388
0.750021220971396
0.750021221264494
0.750021221422725
0.750021221526389
0.750021221652208
0.750021221869755
0.750021222239456
0.750021222810044
0.750021223617442
0.750021224683365
0.750021226014959
0.750021227604731
0.75002122943173
0.750021231462952
0.750021233656098
0.750021235962191
0.750021238329328
0.750021240705497
0.750021243042451
0.750021245297122
0.750021247434686
0.750021249427809
0.750021251258458
0.750021252915143
0.750021254393661
0.750021255693504
0.750021256817914
0.750021257770558
0.750021258555486
0.75002125917496
0.750021259629252
0.750021259916253
0.750021260031226
0.750021259968267
0.750021259720146
0.750021259281294
0.750021258645307
0.75002125781172
0.750021256782411
0.750021255564132
0.750021254165998
0.750021252601172
0.750021250883811
0.750021249030301
0.750021247056437
0.750021244978571
0.750021242811176
0.75002124057036
0.750021238268406
0.750021235917044
0.750021233526189
0.750021231104802
0.75002122866031
0.75002122619909
0.750021223726507
0.750021221246944
0.750021218764254
0.750021216281379
0.750021213801117
0.750021211325344
0.750021208855853
0.7500212063933
0.750021203938248
0.75002120149009
0.750021199048221
0.750021196611251
0.750021194178388
0.750021191748848
0.750021189322739
0.750021186900746
0.75002118448414
0.750021182074684
0.750021189272806
0.750021186927606
0.750021184594985
0.750021182277994
0.750021179978568
0.75002117769997
0.750021175444287
0.75002117321506
0.750021171014306
0.750021168845615
0.750021166711466
0.750021164615067
0.750021162558723
0.750021160544658
0.750021158574673
0.750021156649577
0.750021154770311
0.750021152936127
0.75002115114722
0.750021149401969
0.750021147700855
0.750021146042422
0.750021144427495
0.750021142855533
0.750021141328087
0.75002113984542
0.750021138409133
0.750021137019688
0.750021135678082
0.750021134384325
0.750021133138958
0.750021131942424
0.750021130795251
0.750021129698178
0.750021128651893
0.750021127657468
0.750021126715976
0.750021125829113
0.750021124998295
0.750021124225078
0.750021123511211
0.750021122858469
0.750021122269047
0.750021121744964
0.750021121288691
0.750021120902362
0.750021120588421
0.750021120348729
0.750021120185248
0.750021120099114
0.750021120091288
0.750021120161593
0.750021120309498
0.750021120533204
0.750021120830403
0.750021121197751
0.750021121631414
0.750021122127146
0.750021122680441
0.75002112328711
0.750021123943083
0.7500211246452
0.750021125390733
0.750021126178149
0.75002112700645
0.750021127875769
0.750021128786641
0.750021129740371
0.750021130738456
0.750021131782628
0.750021132874588
0.750021134015574
0.750021135207111
0.75002113645038
0.75002113774655
0.750021139096228
0.7500211404998
0.750021141957008
0.750021143467133
0.7500211450293
0.750021146641671
0.750021148302599
0.75002115000979
0.750021151762107
0.750021153557593
0.750021155395872
0.75002115727524
0.750021159195483
0.750021161154358
0.75002116315126
0.750021165183871
0.750021167250933
0.750021169349597
0.750021171477607
0.750021173631497
0.750021175808051
0.750021178003487
0.750021180214072
0.750021182436308
0.750021184666948
0.750021186903237
0.750021189142365
0.750021191382672
0.750021193622525
0.750021195861386
0.750021198098578
0.750021200334097
0.750021202567688
0.75002120479959
0.750021207030198
0.750021209260718
0.750021211493066
0.750021213729936
0.750021215974517
0.750021218229836
0.750021220498492
0.750021222781777
0.750021225079934
0.750021227391403
0.750021229713589
0.750021232042147
0.750021234371837
0.750021236695896
0.750021239006678
0.75002124129528
0.750021243551848
0.750021245765645
0.750021247924969
0.750021250017688
0.75002125203075
0.750021253951128
0.750021255764879
0.750021257458354
0.750021259016628
0.75002126042576
0.750021261671025
0.750021262739449
0.750021263618592
0.750021264300273
0.750021264779467
0.750021265058034
0.750021265142342
0.750021265045471
0.750021264782895
0.750021264373202
0.750021263832273
0.750021263173674
0.750021262404733
0.750021261527726
0.750021260538303
0.750021259427536
0.750021258182604
0.750021256788932
0.75002125523256
0.750021253501771
0.75002125159037
0.750021249498339
0.750021247235103
0.750021244818656
0.750021242277897
0.750021239649836
0.750021236980381
0.750021234320496
0.750021231726457
0.750021229253769
0.750021226955174
0.750021224875258
0.750021223050266
0.750021221504173
0.750021220248584
0.750021219280696
0.750021218583848
0.750021218126403
0.750021217864149
0.750021217742082
0.750021217694367
0.75002121764575
0.750021217513719
0.750021217212799
0.750021216657504
0.750021215766601
0.750021214464378
0.75002121268318
0.75002121036289
0.750021207453165
0.750021203913189
0.750021199714868
0.750021194843285
0.750021189299643
0.750021183101371
0.750021176283367
0.750021168897124
0.750021161009855
0.750021152702632
0.750021144067467
0.75002113520431
0.75002112621633
0.750021117206048
0.750021108270025
0.750021099495475
0.750021090956469
0.750021082712655
0.750021074808218
0.750021067272949
0.750021060123233
0.75002105336424
0.750021046991267
0.750021040991846
0.750021035346451
0.750021030030235
0.75002102501336
0.750021020262605
0.750021015741802
0.750021011413376
0.750021007238327
0.750021003175768
0.750020999179908
0.750020995198218
0.75002099117193
0.750020987042132
0.75002098275764
0.750020978282427
0.75002097359804
0.750020968702778
0.750020963608175
0.750020958337043
0.750020952922324
0.750020947408152
0.750020941850237
0.750020936315945
0.750020930882413
0.750020925633609
0.750020920656267
0.750020916035558
0.750020911850799
0.750020908171373
0.750020905053555
0.750020902537552
0.750020900645869
0.750020899381172
0.75002089872628
0.750020898642815
0.750020899072841
0.750020899939052
0.75002090114956
0.750020902604113
0.750020904211579
0.750020905859281
0.750020907378805
0.750020908741187
0.750020909843963
0.750020910626124
0.750020911038882
0.750020911057781
0.750020910682964
0.750020909935965
0.750020908861892
0.75002090752757
0.750020906018575
0.750020904435012
0.750020902886331
0.750020901485943
0.750020900344803
0.750020899566789
0.750020899243535
0.750020899452147
0.750020900251823
0.750020901683488
0.750020903767744
0.75002090650564
0.750020909878011
0.750020913847273
0.750020918358547
0.750020923342684
0.750020928719201
0.750020934400536
0.750020940296229
0.750020946317467
0.750020952381263
0.750020958413706
0.750020964352146
0.75002097014551
0.750020975754011
0.750020981148219
0.750020986310046
0.750020991234868
0.750020995935389
0.750021000443256
0.750021004807342
0.750021009086736
0.750021013342463
0.750021017630687
0.750021022001149
0.750021026498582
0.750021031165251
0.750021036041435
0.750021041164986
0.750021046569878
0.750021052285311
0.750021058334661
0.750021064734969
0.750021071496235
0.750021078620737
0.75002108610204
0.75002109392377
0.750021102058424
0.750021110466207
0.750021119094493
0.750021127877806
0.750021136738959
0.750021145590996
0.750021154340358
0.75002116289048
0.750021171145938
0.750021179016283
0.750021186419657
0.750021193285734
0.750021199558159
0.750021205196194
0.750021210175769
0.750021214489469
0.75002121814599
0.750021221168641
0.750021223593803
0.750021225469189
0.750021226852553
0.750021227810729
0.750021228418573
0.750021228757652
0.750021228913529
0.750021228972717
0.750021229018486
0.750021229127893
0.750021229368571
0.750021229797403
0.750021230458544
0.75002123138273
0.750021232585919
0.750021234069102
0.750021235818161
0.750021237805219
0.750021239990313
0.750021242324547
0.750021244753097
0.750021247219455
0.75002124966844
0.750021252050365
0.750021254322432
0.750021256451745
0.750021258414247
0.750021260196161
0.750021261790852
0.750021263199153
0.750021264425422
0.750021265477398
0.750021266362749
0.75002126708885
0.750021267660658
0.750021268080371
0.75002126834697
0.7500212684557
0.75002126839946
0.750021268168371
0.750021267752947
0.750021267143624
0.750021266335375
0.750021265326418
0.750021264121364
0.750021262728614
0.750021261162147
0.750021259437838
0.750021257574482
0.750021255590155
0.750021253503485
0.750021251330954
0.750021249088827
0.750021246790614
0.750021244448851
0.750021242073753
0.750021239674382
0.750021237257857
0.750021234830105
0.750021232395744
0.750021229958384
0.750021227521031
0.750021225085934
0.750021222655297
0.750021220230645
0.750021217813616
0.750021215404908
0.750021213005123
0.750021210613598
0.750021208229409
0.750021205850575
0.75002120347538
0.750021201102066
0.750021198729952
0.750021196359272
0.750021193991328
0.750021191628386
0.75002119979833
0.750021197497393
0.75002119520837
0.750021192934833
0.750021190679057
0.750021188444424
0.750021186232956
0.750021184048018
0.750021181891531
0.750021179766755
0.750021177675802
0.750021175621543
0.750021173606063
0.750021171631472
0.750021169699609
0.75002116781141
0.750021165968036
0.750021164168903
0.750021162414332
0.750021160702632
0.750021159033982
0.750021157406715
0.750021155821527
0.750021154277801
0.750021152777155
0.750021151320018
0.750021149908228
0.750021148542487
0.750021147224041
0.750021145953261
0.750021144730785
0.750021143557038
0.750021142432494
0.75002114135778
0.75002114033352
0.750021139360643
0.750021138440128
0.750021137573298
0.750021136761488
0.750021136006105
0.750021135308853
0.750021134671384
0.750021134095852
0.750021133584209
0.75002113313895
0.750021132762209
0.750021132456512
0.750021132223801
0.750021132066166
0.750021131984827
0.750021131980872
0.75002113205419
0.750021132204302
0.750021132429361
0.750021132726971
0.750021133093604
0.750021133525206
0.750021134017264
0.750021134565012
0.750021135164052
0.750021135810144
0.750021136500065
0.750021137231078
0.750021138001761
0.750021138811248
0.750021139659918
0.750021140548518
0.750021141478644
0.750021142451995
0.750021143470555
0.750021144536212
0.75002114565061
0.750021146815398
0.750021148031853
0.75002114930115
0.750021150623862
0.750021152000257
0.75002115342989
0.750021154911803
0.750021156444694
0.750021158026604
0.750021159655938
0.750021161330625
0.750021163049832
0.750021164811928
0.750021166616775
0.750021168462743
0.750021170349593
0.750021172275079
0.750021174238399
0.750021176236932
0.750021178269184
0.75002118033204
0.750021182423127
0.750021184538861
0.750021186676108
0.750021188831167
0.750021191000588
0.750021193181032
0.750021195369357
0.750021197562913
0.750021199759065
0.750021201956092
0.750021204152245
0.750021206346605
0.750021208538026
0.750021210725879
0.75002121290937
0.750021215088351
0.750021217263198
0.750021219435469
0.750021221607809
0.750021223783848
0.75002122596772
0.750021228163262
0.75002123037367
0.750021232600674
0.750021234844884
0.750021237105151
0.750021239379383
0.750021241663857
0.750021243954047
0.750021246243929
0.750021248526546
0.750021250793547
0.750021253035431
0.750021255241523
0.750021257399854
0.75002125949769
0.750021261521059
0.750021263455792
0.750021265286649
0.750021266998677
0.750021268575754
0.750021270002534
0.750021271262759
0.750021272341865
0.750021273225874
0.750021273905425
0.750021274375055
0.750021274637418
0.750021274701069
0.750021274582587
0.750021274301633
0.750021273880823
0.750021273339485
0.750021272693457
0.750021271950859
0.750021271113353
0.750021270174674
0.750021269122922
0.750021267941387
0.750021266610973
0.750021265112738
0.750021263429881
0.750021261551271
0.750021259472465
0.750021257199236
0.750021254747076
0.750021252143749
0.750021249426782
0.750021246644133
0.75002124384996
0.750021241104999
0.75002123847108
0.750021236008082
0.750021233767832
0.750021231793034
0.750021230113816
0.750021228747966
0.750021227697646
0.750021226949606
0.750021226474681
0.750021226231784
0.750021226168012
0.750021226217982
0.750021226305198
0.750021226343939
0.75002122624327
0.750021225910507
0.750021225256379
0.750021224197442
0.750021222659241
0.750021220576052
0.750021217892763
0.750021214564309
0.750021210558504
0.750021205856546
0.750021200456084
0.75002119437171
0.750021187636449
0.750021180301277
0.750021172434347
0.750021164119308
0.750021155452147
0.750021146537924
0.750021137485394
0.750021128402532
0.750021119390519
0.750021110540012
0.750021101927076
0.750021093612109
0.750021085638988
0.750021078036706
0.750021070820703
0.75002106399564
0.75002105755692
0.750021051493106
0.750021045786548
0.750021040415102
0.750021035352171
0.750021030568164
0.750021026030721
0.750021021706213
0.750021017560045
0.750021013556514
0.750021009655507
0.750021005808778
0.750021001957953
0.750020998038832
0.750020993989919
0.75002098976214
0.750020985324247
0.750020980663601
0.750020975783144
0.75002097069876
0.750020965437632
0.750020960038966
0.750020954554653
0.750020949049695
0.750020943600642
0.75002093829279
0.750020933215959
0.750020928459962
0.750020924109898
0.750020920241809
0.750020916919002
0.750020914188863
0.750020912080734
0.750020910603534
0.750020909745304
0.750020909471703
0.750020909727434
0.750020910436559
0.750020911508136
0.750020912842999
0.750020914370019
0.750020915915129
0.750020917378018
0.750020918691575
0.750020919764711
0.750020920528786
0.750020920934697
0.750020920956199
0.750020920592931
0.750020919866976
0.750020918824253
0.750020917532498
0.750020916078508
0.750020914563638
0.750020913098823
0.750020911798898
0.750020910776027
0.750020910134601
0.750020909965833
0.750020910345208
0.750020911329097
0.750020912954421
0.750020915236795
0.750020918171453
0.750020921732874
0.750020925876815
0.750020930541774
0.750020935652301
0.750020941122332
0.750020946859793
0.750020952771124
0.750020958766102
0.750020964762125
0.750020970687386
0.750020976482751
0.750020982101681
0.750020987509683
0.750020992683567
0.750020997613029
0.750021002303442
0.75002100677958
0.750021011085711
0.750021015281128
0.750021019430607
0.750021023595382
0.750021027827866
0.750021032172723
0.750021036670096
0.750021041358494
0.750021046274742
0.750021051453135
0.750021056923964
0.750021062712809
0.750021068839774
0.750021075319225
0.750021082159274
0.750021089361135
0.750021096918067
0.750021104813936
0.75002111302174
0.750021121502052
0.750021130202093
0.750021139055294
0.750021147982219
0.750021156892414
0.750021165687854
0.750021174266999
0.750021182529634
0.750021190381278
0.750021197737312
0.750021204526105
0.750021210691478
0.75002121619417
0.750021221012612
0.750021225142605
0.750021228596438
0.750021231401247
0.750021233597499
0.750021235237607
0.750021236384993
0.750021237113388
0.750021237505493
0.750021237650909
0.750021237642337
0.75002123757157
0.750021237524884
0.750021237580236
0.750021237804618
0.750021238253188
0.75002123896761
0.750021239975337
0.750021241288238
0.75002124290226
0.750021244797386
0.750021246938987
0.750021249279962
0.750021251764166
0.750021254330056
0.750021256915305
0.750021259460345
0.750021261912669
0.750021264228508
0.750021266375648
0.750021268332307
0.750021270088149
0.750021271640861
0.750021272996007
0.750021274162761
0.750021275153409
0.750021275979693
0.750021276652407
0.750021277179201
0.750021277564203
0.750021277807527
0.750021277904693
0.750021277847913
0.750021277625605
0.750021277225666
0.7500212766354
0.750021275846316
0.750021274853548
0.750021273659568
0.750021272271833
0.750021270704529
0.750021268974627
0.750021267102524
0.750021265108089
0.750021263011687
0.750021260831362
0.750021258584555
0.750021256285933
0.750021253948986
0.750021251584597
0.75002124920217
0.750021246808815
0.750021244410149
0.750021242010206
0.750021239611861
0.750021237217289
0.750021234827937
0.750021232445287
0.750021230070327
0.750021227704336
0.750021225347873
0.750021223001509
0.750021220664595
0.7500212183361
0.75002121601373
0.750021213695154
0.750021211377813
0.750021209060177
0.750021206741833
0.750021204423762
0.750021202108335
0.750021211655207
0.750021209398015
0.750021207151217
0.750021204918958
0.750021202704023
0.750021200510129
0.750021198339508
0.750021196195563
0.750021194080243
0.750021191996606
0.750021189946494
0.75002118793243
0.750021185956191
0.750021184019628
0.750021182124474
0.750021180271691
0.750021178462626
0.750021176696927
0.750021174975154
0.750021173295733
0.750021171658751
0.750021170062409
0.750021168507211
0.750021166992362
0.750021165519374
0.750021164088695
0.750021162702268
0.750021161360972
0.750021160066244
0.750021158818679
0.750021157619003
0.750021156467638
0.750021155365007
0.750021154311631
0.750021153308049
0.750021152355064
0.750021151453574
0.750021150604702
0.750021149809743
0.750021149070017
0.750021148387227
0.750021147762965
0.750021147199399
0.750021146698457
0.750021146262682
0.750021145894242
0.750021145595763
0.750021145369292
0.750021145217058
0.750021145140408
0.750021145140553
0.750021145217462
0.750021145370688
0.750021145598316
0.750021145897821
0.750021146265449
0.750021146696856
0.750021147187203
0.750021147731392
0.750021148324734
0.750021148962763
0.750021149642129
0.750021150360049
0.75002115111519
0.750021151906823
0.75002115273557
0.750021153602423
0.750021154509283
0.750021155458109
0.750021156451177
0.750021157490613
0.750021158578375
0.750021159716273
0.750021160905702
0.750021162147863
0.750021163443276
0.750021164792093
0.750021166193684
0.750021167646926
0.750021169150322
0.750021170701985
0.750021172300504
0.750021173944153
0.750021175632384
0.750021177363774
0.750021179138173
0.750021180953785
0.75002118281006
0.750021184704512
0.75002118663604
0.750021188601781
0.7500211906001
0.750021192627796
0.750021194682548
0.750021196760859
0.750021198859839
0.750021200975978
0.750021203106121
0.750021205247026
0.750021207395601
0.750021209549084
0.750021211704749
0.750021213860537
0.750021216014353
0.750021218164719
0.750021220309974
0.750021222448957
0.75002122458061
0.750021226704817
0.750021228822434
0.750021230935841
0.750021233048712
0.750021235165675
0.750021237291638
0.750021239430936
0.750021241587027
0.75002124376184
0.750021245956258
0.750021248169576
0.750021250400337
0.750021252645586
0.750021254901651
0.750021257163311
0.750021259424331
0.750021261676846
0.750021263911581
0.750021266117673
0.750021268282572
0.750021270392465
0.750021272431938
0.750021274385059
0.750021276234748
0.750021277964262
0.750021279556036
0.750021280993518
0.750021282259677
0.750021283339556
0.750021284219172
0.750021284889504
0.750021285345949
0.750021285592656
0.750021285640476
0.750021285508849
0.750021285220483
0.750021284800542
0.750021284270147
0.750021283645809
0.750021282935215
0.750021282138557
0.7500212812472
0.750021280246098
0.750021279114729
0.750021277829745
0.750021276367695
0.75002127470739
0.750021272833651
0.750021270738736
0.750021268426018
0.750021265909831
0.750021263218089
0.750021260390085
0.750021257477157
0.750021254538063
0.750021251638357
0.750021248845583
0.75002124622698
0.750021243842241
0.750021241741322
0.750021239960214
0.750021238520958
0.750021237428015
0.750021236669369
0.75002123621817
0.750021236034751
0.750021236065789
0.750021236244887
0.750021236493981
0.75002123672449
0.750021236840583
0.75002123674269
0.750021236333333
0.750021235520789
0.75002123422317
0.750021232368753
0.750021229897635
0.750021226760906
0.750021222922989
0.750021218362128
0.750021213073436
0.75002120706973
0.750021200383151
0.75002119306505
0.750021185185216
0.750021176830349
0.750021168100586
0.750021159106003
0.750021149960611
0.750021140777476
0.750021131662175
0.750021122708971
0.750021113996561
0.750021105587261
0.750021097526182
0.750021089843234
0.750021082554554
0.750021075665659
0.750021069173021
0.750021063066725
0.75002105733098
0.750021051945799
0.750021046886711
0.750021042125913
0.750021037632111
0.750021033371693
0.750021029309317
0.750021025408804
0.750021021631179
0.750021017930628
0.750021014250397
0.750021010524047
0.750021006682842
0.750021002666509
0.750020998431597
0.75002099395467
0.750020989230628
0.750020984269823
0.75002097909587
0.750020973745702
0.750020968270139
0.750020962734374
0.750020957216601
0.750020951805273
0.750020946594724
0.750020941680459
0.750020937154028
0.750020933098479
0.750020929584164
0.750020926665348
0.750020924377556
0.750020922734963
0.750020921729485
0.750020921329219
0.750020921479733
0.750020922104713
0.750020923112449
0.750020924397053
0.750020925930609
0.750020927442881
0.750020928909796
0.750020930233004
0.750020931320331
0.750020932095323
0.750020932507036
0.750020932526886
0.750020932154721
0.750020931414792
0.750020930356264
0.750020929050352
0.750020927587387
0.750020926071898
0.750020924617977
0.750020923343467
0.750020922363477
0.750020921784847
0.750020921700486
0.750020922186386
0.750020923298098
0.750020925070235
0.750020927514765
0.750020930622022
0.750020934360698
0.750020938680096
0.750020943511998
0.750020948774248
0.750020954374465
0.750020960214955
0.750020966197574
0.75002097222881
0.750020978224194
0.750020984111457
0.750020989832216
0.750020995341773
0.750021000608678
0.750021005614522
0.750021010356209
0.750021014849034
0.750021019129407
0.750021023252536
0.750021027285093
0.75002103129429
0.750021035340015
0.75002103947253
0.750021043735979
0.750021048171857
0.750021052820456
0.750021057719373
0.75002106290219
0.750021068397272
0.750021074227505
0.750021080410013
0.750021086956257
0.750021093871787
0.750021101155666
0.750021108799461
0.750021116785695
0.750021125086343
0.750021133661038
0.750021142455981
0.750021151403157
0.750021160420996
0.750021169415974
0.750021178286113
0.750021186925216
0.750021195228261
0.750021203096322
0.750021210441265
0.750021217189177
0.750021223282958
0.750021228683691
0.750021233371219
0.750021237343542
0.750021240615675
0.750021243217917
0.750021245194444
0.750021246602368
0.750021247511144
0.750021248001994
0.750021248165963
0.750021248100799
0.75002124790599
0.750021247678046
0.750021247505993
0.750021247469133
0.750021247635152
0.750021248059454
0.750021248783513
0.750021249833723
0.750021251219844
0.750021252934333
0.75002125495244
0.750021257233466
0.75002125972345
0.750021262358807
0.750021265070793
0.750021267790414
0.750021270452649
0.750021273000902
0.750021275389054
0.75002127758413
0.750021279565238
0.750021281324219
0.750021282862056
0.750021284188248
0.750021285316248
0.75002128626254
0.750021287042713
0.750021287670828
0.750021288157116
0.750021288507614
0.750021288723714
0.750021288801687
0.750021288733912
0.750021288508354
0.750021288111701
0.750021287529465
0.750021286750781
0.750021285768417
0.750021284582837
0.750021283200222
0.750021281634194
0.75002127990186
0.75002127802417
0.750021276021947
0.750021273916691
0.750021271727801
0.750021269474031
0.750021267171479
0.750021264834905
0.750021262476256
0.750021260105618
0.750021257730429
0.750021255356218
0.750021252986622
0.750021250623844
0.750021248269226
0.750021245923309
0.750021243586681
0.750021241259546
0.750021238942574
0.750021236635976
0.750021234340198
0.750021232054699
0.750021229778614
0.75002122750973
0.750021225245508
0.750021222982855
0.750021220719419
0.750021218453901
0.750021216186558
0.750021213919388
0.750021224957434
0.750021222744187
0.750021220538952
0.750021218346445
0.750021216170085
0.750021214014113
0.750021211881206
0.750021209775033
0.75002120769773
0.750021205652323
0.750021203640524
0.750021201664555
0.750021199725861
0.750021197825942
0.750021195966296
0.750021194147793
0.750021192371889
0.750021190638486
0.750021188948454
0.750021187300486
0.750021185694765
0.75002118412945
0.750021182604838
0.750021181119875
0.750021179675812
0.750021178272954
0.750021176913189