/*--------------------------------*- C++ -*----------------------------------*\
| =========                 |                                                 |
| \\      /  F ield         | foam-extend: Open Source CFD                    |
|  \\    /   O peration     | Version:     4.0                                |
|   \\  /    A nd           | Web:         http://www.foam-extend.org         |
|    \\/     M anipulation  |                                                 |
\*---------------------------------------------------------------------------*/
FoamFile
{
    version     2.0;
    format      ascii;
    class       volScalarField;
    location    "10";
    object      MaU;
}
// * * * * * * * * * * * * * * * * * * * * * * * * * * * * * * * * * * * * * //

dimensions      [0 0 0 0 0 0 0];

internalField   nonuniform List<scalar> 
160000
(
0.39468690016864
0.394687026552447
0.394686711093633
0.394688787721139
0.394686663445643
0.394687077435758
0.394688826516245
0.394686882220701
0.394685592467313
0.394687421206308
0.394686817000839
0.394687678726078
0.394686895549695
0.394687430457573
0.394689715087089
0.394686668006216
0.394686954214374
0.394688099641445
0.394685085436802
0.394686003643418
0.394687341957257
0.394687553966646
0.39468572589829
0.394685841853762
0.394685762356385
0.39468689031522
0.394686731174641
0.394686542401829
0.394686272938424
0.394687432072218
0.394686324839321
0.394686594558419
0.394686941636564
0.394686448741573
0.394686481994184
0.394686958170408
0.394687341999209
0.394686672685513
0.394686655051881
0.394688357652681
0.394688793190998
0.394684695724081
0.394687730901292
0.394687859241006
0.394686862905964
0.394686831659897
0.394687154168989
0.394687022096266
0.394688773498136
0.394686129994321
0.394686565956297
0.394686708696023
0.394685849981567
0.394686435111704
0.394686789301399
0.394686162405484
0.394686623986251
0.394686213299945
0.394687232514614
0.394686362030086
0.394687187847994
0.3946862761902
0.394687039294088
0.394686734252432
0.394687765705608
0.394686303157938
0.394686604547466
0.394688626673363
0.394686511717948
0.394686089095661
0.394687333597969
0.394688912368678
0.394686712442446
0.394686886539576
0.394688094817847
0.394687071412128
0.394687716626388
0.394687733079286
0.39468673098415
0.394686893695841
0.39468660942886
0.394685887920169
0.394689258866492
0.394685713586702
0.394684915744165
0.394687008561359
0.394685933777132
0.394686692767714
0.394686874417529
0.394687378828132
0.394686710393228
0.394687103389686
0.39468728293398
0.394689702586496
0.394687558429477
0.394687966202238
0.394688484907211
0.39468857308987
0.394687374928001
0.394688635703557
0.394686631371083
0.394685565841739
0.394688236696587
0.394687071801604
0.394686098760953
0.394685306316733
0.394685487904927
0.394686361178778
0.394686988743644
0.394685072163448
0.394685232276091
0.394686204320026
0.394686196491279
0.394684740454979
0.394686220283486
0.394687112587483
0.394686048795928
0.394685757725473
0.394688062638978
0.39468629577197
0.394686973754887
0.394689762321683
0.394687145778406
0.394686486261174
0.394687321799218
0.394687435757199
0.394686580178943
0.39468638159504
0.394686397905594
0.394688854896087
0.394688262583549
0.394685813896391
0.394687046919923
0.394686181380996
0.394687348930522
0.394686210923752
0.394685958644595
0.394686982157217
0.394686471656095
0.394686875634822
0.394686132095582
0.394686562628488
0.394687168972759
0.394687348839561
0.394687018886078
0.394688080236144
0.394688201159291
0.394686795894876
0.394688019643049
0.394687220725087
0.394688327047077
0.394686902962889
0.394687028741449
0.394689526922865
0.394685486300462
0.394685674040755
0.394692254962623
0.394685927795223
0.394684719529392
0.394686402493082
0.394685382227098
0.394685619669984
0.39468699908939
0.394685963965268
0.394686273023315
0.394686258484534
0.394686273484085
0.39468668053582
0.39468604570659
0.394686999390411
0.394685764075521
0.394689108606124
0.394685947868983
0.39468612475024
0.394686380304685
0.394686510482062
0.394686583604038
0.394686863610277
0.394686487748872
0.394686842203546
0.394686628146914
0.394687208228693
0.394686218108637
0.394687599703204
0.394689947284815
0.394687012815856
0.394686945828629
0.394686913961642
0.394687641229671
0.394687235122245
0.394687457891199
0.394686842431292
0.394688015376652
0.394687615347969
0.394687855014761
0.394687088645207
0.394686800368339
0.394687664095778
0.394688275971585
0.394687054971093
0.394687015548096
0.39468643411271
0.394686195614423
0.394686977872832
0.394686474160211
0.394686434928689
0.39468629173205
0.394686489247976
0.394686656620136
0.394685809180345
0.394686439330262
0.394685867603837
0.39468540279819
0.39468782494618
0.394687312149658
0.394685270429277
0.394688245434587
0.394686275556148
0.394686691932137
0.394686492132525
0.394686510807588
0.394686349385623
0.39468633753083
0.394686566801585
0.394688303121777
0.39468767511531
0.394687175570385
0.394687981061129
0.394687994255959
0.394687842682008
0.394687964687591
0.394687884601744
0.394687608226558
0.394687064839934
0.394687644646901
0.394686145467039
0.39468738819258
0.394686143387332
0.394686135484284
0.394687091005701
0.394686666421443
0.394685846134842
0.394687399672829
0.394687715864099
0.394686530333597
0.394686703991079
0.394687212092515
0.394687721096558
0.394687267857601
0.39468854607844
0.394687448273409
0.394688226292784
0.394687832137512
0.394686940872326
0.394687460801509
0.394687200230846
0.394687058456368
0.394687624370915
0.394687037288768
0.394687542707441
0.394687315593125
0.394687330426501
0.394688646116781
0.394687254328801
0.394686774951173
0.394686202760063
0.394688909733626
0.394685476250769
0.394685633726425
0.394688276221175
0.394686732086356
0.394685240639825
0.394685903091979
0.394685643004455
0.39468665558583
0.394688477998616
0.394686232071482
0.394685977623059
0.394686003885457
0.394687990620321
0.394686943328349
0.394687302066241
0.394687774357448
0.39468785393742
0.394688498827813
0.394687682513228
0.394688251708105
0.394690763021494
0.394688311595194
0.394687595996
0.394687932717772
0.394688780284119
0.394687301728703
0.394687919243953
0.394687602054062
0.394687783733922
0.39468706011873
0.394687293374436
0.39468774371465
0.394687799433018
0.394686470075801
0.394686962920706
0.394686617220359
0.394687485456876
0.394686598490555
0.394687178653997
0.394686556181584
0.394687321275931
0.394686075628933
0.394686905185734
0.394686663793502
0.394686821328552
0.394687662417074
0.394686556155236
0.394687063854137
0.394686859127777
0.39468755588649
0.394686369532561
0.394686732738929
0.394686712765361
0.394686774765132
0.394686564215935
0.394686718732302
0.394686833852934
0.394686231847305
0.394686031547946
0.394686070963059
0.394690641805003
0.394686377479159
0.39468826194468
0.394686858541057
0.394686873821126
0.394686700787931
0.394687881004301
0.394686858799849
0.394687032775486
0.394687056714854
0.394687295523057
0.394686379217231
0.39468891905018
0.394688558449529
0.394686077775929
0.394686517992919
0.394687207992459
0.394687904529627
0.39468760047673
0.394686733194869
0.394687144537329
0.394687347385991
0.394687941910992
0.394688166202733
0.394687487094035
0.394687543765727
0.394688618249883
0.394687770160527
0.394687143750608
0.394687863858671
0.394687102347942
0.394686648475046
0.394686589714947
0.394688176397315
0.394686834630358
0.394686440666972
0.394687628798297
0.394688532673151
0.394689721216195
0.394688749736773
0.394686558896917
0.394687718635616
0.394687869932943
0.394687728035835
0.394687675389065
0.394686726144702
0.394686231243134
0.394688355474302
0.394688132850003
0.3946857207954
0.394684343024763
0.394684599566732
0.394686438188596
0.394684370781879
0.394684213427507
0.394686544217732
0.394684690977345
0.394685152193995
0.39468696552654
0.394685605998142
0.39468642425505
0.394686121774278
0.394686254420857
0.394686554369139
0.394686387788834
0.394686540056668
0.394687320264167
0.394686728825332
0.394686872126228
0.394686126019507
0.394686861658437
0.394687409973186
0.394687480014205
0.394686964929079
0.394687178260668
0.394686957045056
0.394689205507228
0.394687056203319
0.394687440708433
0.394689137217817
0.394687186160224
0.394685925927668
0.394687653539753
0.394686961989185
0.394687769754946
0.394686960906522
0.394687498331942
0.394689989712036
0.394686822674989
0.394687008845952
0.394688135040071
0.394685159960322
0.394686157574931
0.394687447215452
0.394687543850036
0.39468577032989
0.394685843656994
0.394685781900286
0.394686933606475
0.394686677900113
0.394686520301818
0.394686307636472
0.394687482116637
0.394686460409486
0.39468678449374
0.394687146101883
0.39468672217507
0.394686792147968
0.394687265398823
0.394687624324223
0.394687022664859
0.394686959050486
0.394688657425532
0.394689074314802
0.394685049046081
0.394687989295154
0.394688091264502
0.394687036014021
0.39468696910025
0.39468723110435
0.394687108685442
0.394688967094555
0.394686188891097
0.394686581883727
0.394686763966302
0.394685915140317
0.39468656287789
0.394686994287411
0.394686357474513
0.394686777987849
0.394686500386044
0.394687577857638
0.394686628715563
0.394687345481408
0.39468650304506
0.39468728842677
0.394686870504377
0.394687805262967
0.394686351548023
0.394686530807875
0.394688433458339
0.394686364453624
0.394685845421056
0.394687048175261
0.394688641945379
0.394686436123506
0.394686607685038
0.394687831874448
0.394686875173246
0.394687548565285
0.394687673863557
0.394686640756304
0.394686822508544
0.394686558687857
0.394685749767461
0.394688903090391
0.394685517970026
0.394684797274045
0.394686934537553
0.394685890347841
0.394686623590239
0.394686875226798
0.394687404537564
0.394686853188379
0.394687316279134
0.394687533368321
0.394689903722451
0.394687885565929
0.394688233609375
0.394688760612197
0.394688726121271
0.394687564245454
0.394688816526018
0.394686794471839
0.394685683038894
0.394688403732441
0.394687214790669
0.394686269511629
0.394685518626674
0.39468576892621
0.394686742184537
0.394687329461357
0.394685515214813
0.394685665038448
0.394686586991182
0.394686564948223
0.394685102980925
0.394686564422245
0.394687305999843
0.394686199536711
0.394685868770762
0.394688023895473
0.394686218742861
0.394686859714373
0.394689855108099
0.394686964764874
0.394686419650445
0.394687366381474
0.394687451621692
0.394686673046431
0.394686504104363
0.394686511110566
0.394688984667741
0.394688572509795
0.394686089612946
0.394687366295375
0.394686467523189
0.394687560438795
0.394686421121475
0.394686192692264
0.394687068162253
0.394686545507325
0.39468697451286
0.394686185188939
0.394686586760868
0.394687220566261
0.394687390788246
0.394687070061821
0.394688155364725
0.394688361673627
0.394686948574601
0.394688106009019
0.394687327732235
0.394688374667231
0.394686931817428
0.394686998775421
0.39468959547054
0.394685258914247
0.394685297258904
0.394691739613787
0.394685590840511
0.394684495103305
0.39468631361339
0.394685367783283
0.394685644715422
0.394687076868985
0.394686132212524
0.394686412253681
0.39468641236635
0.394686423558343
0.394686773072108
0.394686134793865
0.394687114466645
0.394685826761972
0.394689064763372
0.394685883647533
0.394685975469636
0.394686212693864
0.394686323181939
0.394686528499092
0.394686728575706
0.394686393385116
0.394686866689898
0.394686692088284
0.394687281007297
0.394686367170525
0.39468777854118
0.394690235199373
0.394687201265183
0.39468721713645
0.394687230544523
0.394687988446615
0.394687463676839
0.394687624387703
0.394687050391703
0.394688154612888
0.394687658411613
0.39468785201016
0.394687039640035
0.39468664505314
0.394687449488699
0.394688059586613
0.394686755604291
0.39468665872812
0.394686044168288
0.394685835212634
0.394686584959838
0.39468610734241
0.394686085745336
0.394685883628301
0.39468612837163
0.394686367599982
0.394685486823439
0.39468610161917
0.394685583225547
0.394685133419069
0.39468754892335
0.394687158324284
0.394685232757855
0.394688495313586
0.394686376192447
0.394686837514213
0.39468674849926
0.394686762071513
0.394686573001174
0.394686565198487
0.394686794855571
0.394688430321571
0.394687731599898
0.394687180078327
0.394687932691451
0.394687866002614
0.39468767874554
0.394687750358925
0.394687612068322
0.394687309332189
0.394686722721748
0.394687225122856
0.394685720221813
0.394686853063508
0.394685623617253
0.394685574461426
0.394686506435587
0.394686074658745
0.394685227179347
0.394686754446538
0.394687105624535
0.39468588962534
0.394686096402632
0.394686714102617
0.394687316801203
0.394686918917082
0.394688668807665
0.394687321786669
0.394688212070413
0.394687820356614
0.394687033761277
0.394687553305332
0.394687296166493
0.394687118909815
0.39468770802979
0.394687086354973
0.394687514054705
0.394687182078269
0.394687178241604
0.394688460289087
0.394686988653694
0.394686459346846
0.394685900987344
0.394688747719143
0.394685265681361
0.394685419046737
0.394687977328461
0.394686425025037
0.394685011896905
0.394685747075507
0.394685494555072
0.394686482603078
0.394688139012135
0.394686017278101
0.394685776157737
0.394685861760185
0.394687790319484
0.394686823919079
0.394687173159949
0.394687623866652
0.394687731978812
0.39468840500447
0.394687528950218
0.394688071377375
0.394690659491263
0.394688159190757
0.394687503316581
0.394687848179789
0.39468868659354
0.394687258543879
0.394687803643011
0.394687464443662
0.394687565620442
0.394686839378458
0.394686947861942
0.394687431562208
0.394687507240581
0.394686183212468
0.394686718602438
0.394686357018473
0.3946872484276
0.394686491475536
0.39468715776948
0.394686529081898
0.394687301999968
0.394686192180481
0.394687059619926
0.394686831319065
0.394687052316154
0.394687828650025
0.394686766108478
0.394687233311743
0.394686966413713
0.394687635004783
0.394686407498735
0.394686707273943
0.394686651242244
0.394686637043988
0.394686439062419
0.394686557973453
0.394686651870124
0.394686049397773
0.394685699839192
0.394685619220195
0.394690158709917
0.394685915862416
0.394687987993979
0.394686553672225
0.394686629938199
0.394686527464232
0.394687707960313
0.394686687840898
0.394686892348202
0.394686873236019
0.394687130709937
0.394686097189334
0.394688553051521
0.394688170583335
0.39468569947643
0.394686080030217
0.394686745043491
0.394687466657511
0.394687130696552
0.394686191155898
0.394686744121777
0.394686995049434
0.394687617056974
0.394687961418123
0.394687402123755
0.394687585092311
0.394688587941538
0.394687931522792
0.394687402130866
0.39468816802543
0.394687429194683
0.394687022004831
0.394686910937274
0.394688554084901
0.394687193017455
0.394686832536194
0.394688037870535
0.394688929184613
0.394690439211371
0.394689219200285
0.394687054078517
0.394688208256971
0.394688358191379
0.394688188122317
0.394688146452945
0.39468713643504
0.394686604550892
0.394688807596511
0.394688327072729
0.39468603426122
0.394684672599995
0.394684886660566
0.394686547000707
0.39468457700896
0.394684333891404
0.394686531459227
0.394684728679379
0.394685081675222
0.394686758606393
0.394685464201361
0.394686269860841
0.394685984545028
0.394685993677389
0.394686238483004
0.394686062804333
0.394686189277743
0.394686989866153
0.394686401369165
0.394686573127747
0.394686269610066
0.394686687253328
0.394687364707556
0.394687441069313
0.394686924536125
0.394687162025626
0.394686998666475
0.39468936865585
0.394687156581215
0.394687534967675
0.394689203099524
0.394687237284836
0.394686024615959
0.394687673327718
0.394686937809946
0.39468771550375
0.39468688142221
0.394687407549809
0.394690100127063
0.394686817961455
0.394686932062247
0.394688067342883
0.394685160015888
0.394686207729282
0.394687505375539
0.394687527298806
0.394685789769675
0.394685848890553
0.394685814804034
0.394686992037231
0.394686672219033
0.394686528714029
0.394686346971406
0.394687540343984
0.394686574625526
0.394686923068868
0.394687310488968
0.394686924185003
0.394687030250896
0.39468750069886
0.394687825068851
0.394687251574649
0.394687182949986
0.394688875935757
0.394689240289561
0.394685266559849
0.394688167010089
0.394688275839917
0.394687144161837
0.394687053180758
0.39468729353307
0.39468717835256
0.394689079259506
0.394686265331952
0.394686656628399
0.394686861643131
0.394686020856642
0.394686728195932
0.394687228971161
0.394686558073779
0.394686935708123
0.39468674587427
0.394687858653611
0.39468681192021
0.394687398522496
0.394686605217163
0.394687392328517
0.39468689142554
0.394687763999348
0.394686350171292
0.394686471615334
0.394688285526852
0.39468630194869
0.394685742699093
0.394686906777808
0.394688483528035
0.394686269330684
0.394686396499787
0.394687607288789
0.394686660265908
0.394687334058596
0.394687537326426
0.394686503722575
0.394686731509845
0.394686560728411
0.394685693114595
0.394688746676386
0.394685504613464
0.394684869589245
0.394687035455896
0.394686004412242
0.394686669804582
0.394686899353387
0.394687364173403
0.39468684743759
0.394687279698018
0.394687448302643
0.394689742526892
0.394687779283643
0.394688095140259
0.394688640245032
0.39468857965257
0.394687515015455
0.39468883161582
0.394686851033724
0.394685739824993
0.394688588497581
0.394687371771458
0.394686465382481
0.394685738551902
0.394686043046565
0.394687076629642
0.394687602303403
0.39468583788647
0.394685957770471
0.394686837373373
0.3946867913187
0.394685334307777
0.394686807345715
0.394687440831552
0.394686322855798
0.394685968810763
0.394688010439914
0.394686198873006
0.394686815503819
0.394689858393171
0.394686869266041
0.394686407097542
0.394687439589499
0.394687471722654
0.394686740268308
0.394686577426862
0.394686561282049
0.394688992763767
0.394688698776783
0.394686208378401
0.394687533638726
0.39468661944418
0.394687667671506
0.394686569304613
0.394686368400947
0.394687175385018
0.394686647222083
0.394687085892872
0.394686273204254
0.394686653884166
0.394687261838156
0.394687390817909
0.394687025717743
0.394688097436196
0.394688346759332
0.394686905839259
0.394687995637702
0.394687239912798
0.394688240984905
0.394686822754498
0.394686881058949
0.394689557720431
0.394685079842846
0.39468506887832
0.394691376004704
0.394685467452579
0.394684478210899
0.394686399109769
0.394685510269556
0.39468580892027
0.394687260784146
0.394686357329119
0.394686606092809
0.394686613170724
0.394686594270038
0.394686886919365
0.394686260123072
0.394687244482686
0.394685934804427
0.394689185864649
0.394685917259714
0.394685964981026
0.394686204658602
0.394686288431814
0.394686598575618
0.394686704946044
0.394686357411249
0.39468688270515
0.394686707684922
0.394687267406611
0.394686386365288
0.394687806636715
0.394690232498508
0.394687202355221
0.394687297432364
0.394687335422963
0.394688139329321
0.394687521268937
0.394687651549246
0.39468712800618
0.394688204970052
0.394687627247022
0.394687813968742
0.394686973838351
0.39468656136579
0.394687336081264
0.39468798050365
0.394686646059757
0.394686521986612
0.394685908001157
0.394685734863666
0.394686455402137
0.39468599813895
0.39468597842167
0.394685714224194
0.39468600428502
0.394686284377678
0.39468539713845
0.394686010437982
0.394685558165279
0.394685119394728
0.394687509818421
0.394687248423004
0.394685383057131
0.394688807415026
0.39468658463218
0.394687064345432
0.394687032581564
0.394687017703375
0.394686759326146
0.394686739761965
0.394686945638835
0.39468846612998
0.394687645087714
0.394687026613066
0.394687701524293
0.394687554241616
0.394687341648105
0.394687397406555
0.394687231596714
0.394686977235044
0.394686405361482
0.394686896457791
0.394685455767708
0.394686554295124
0.394685366393779
0.394685318417774
0.394686245049943
0.394685803597617
0.394684908117036
0.39468641703327
0.394686739605352
0.394685486053525
0.394685668585555
0.394686358657574
0.394686987532479
0.394686589259296
0.394688460038959
0.394687086436945
0.394688059817352
0.394687611047706
0.394686904724589
0.394687421518833
0.394687187249189
0.39468698956057
0.394687643755598
0.39468704762025
0.39468744811996
0.394687090206202
0.394687090189761
0.394688375044601
0.394686861945979
0.394686293182464
0.394685783435331
0.394688748632751
0.394685236017055
0.394685393433765
0.394687874294058
0.394686313744771
0.394684964668248
0.394685743437142
0.394685499819666
0.394686433331821
0.394687929470756
0.394685885045255
0.394685622075096
0.394685700129659
0.394687540309341
0.394686598829427
0.394686912007949
0.394687302926401
0.394687402378249
0.394688072707112
0.394687127661284
0.394687638253034
0.394690197495444
0.394687760300187
0.394687158427558
0.39468754252833
0.394688395757831
0.394687053910399
0.394687566588333
0.394687248373567
0.394687334466517
0.394686622872062
0.394686686441539
0.394687218777801
0.394687357511696
0.394686056649146
0.394686605203403
0.394686236955148
0.394687128652083
0.394686476000639
0.394687177213411
0.394686506848989
0.394687245417307
0.394686208661605
0.394687066964385
0.394686817865156
0.394687055275746
0.394687785408195
0.39468676980268
0.394687217932491
0.394686939093652
0.394687625503502
0.39468641338149
0.394686702192504
0.394686670631557
0.394686653287663
0.394686466973313
0.394686577626929
0.394686669550609
0.394686079935544
0.394685596576804
0.394685413391439
0.394689877682989
0.394685682960411
0.39468783261761
0.394686406417463
0.394686515518823
0.394686469506541
0.394687633554662
0.394686597567902
0.394686857431157
0.394686797629843
0.394687085140335
0.394686006223533
0.394688372119741
0.394688022282107
0.394685577402879
0.394685887276507
0.394686521283769
0.394687273828846
0.394686867233465
0.394685861681518
0.394686482657702
0.394686728235093
0.394687332007442
0.394687708413584
0.394687235642271
0.39468748083945
0.394688380344697
0.394687858508513
0.39468740037128
0.394688209151352
0.39468747936121
0.394687116447925
0.394686970785526
0.394688672532702
0.394687274486259
0.394686938454873
0.394688134082191
0.394689009558408
0.394690728894406
0.394689314209062
0.394687173018306
0.39468839287795
0.394688503821935
0.394688314031121
0.394688327828218
0.394687308431519
0.394686786370592
0.394688995622257
0.394688516930917
0.394686352429576
0.394685065946569
0.394685291711141
0.394686840973495
0.394684964261663
0.394684652122852
0.394686761156331
0.394684958604062
0.394685202720083
0.3946867588907
0.394685506954362
0.39468627709233
0.394685990507379
0.394685893606149
0.394686075632296
0.39468586475881
0.394685994125736
0.394686793040726
0.394686196432096
0.394686378655126
0.394686338438276
0.394686545288335
0.394687331630511
0.394687346713132
0.394686847823031
0.394687098160364
0.394686984539449
0.394689480541243
0.39468719402543
0.394687576412845
0.394689231391076
0.394687250929794
0.394686087778576
0.394687656095299
0.394686884206817
0.394687630378156
0.394686766632009
0.394687271822748
0.394690177177109
0.39468677272597
0.394686831434296
0.394687994508147
0.394685166034099
0.394686263942236
0.39468759015665
0.394687528508815
0.394685835205121
0.394685881723095
0.39468586940919
0.394687067761692
0.394686682128632
0.394686551166553
0.394686396050944
0.394687608412672
0.394686697822574
0.394687065507868
0.394687484307366
0.39468713091389
0.394687272746633
0.394687741070988
0.394688025714979
0.394687470187264
0.394687394046257
0.394689074936342
0.394689377947391
0.394685464003068
0.394688320722725
0.394688446763311
0.394687234513319
0.39468712062796
0.39468734999623
0.394687238844096
0.394689170795201
0.394686349076907
0.394686748711384
0.394686981197781
0.394686149546564
0.39468692109857
0.394687503991018
0.394686795797635
0.394687134524002
0.39468703432477
0.394688173234867
0.394687025769331
0.394687466464703
0.394686710217011
0.39468748641325
0.394686896059049
0.394687709463155
0.394686341077466
0.394686416878086
0.394688147781731
0.394686265074713
0.394685676515659
0.394686808253986
0.394688353155277
0.394686131624303
0.394686201829135
0.394687382875407
0.394686429997421
0.394687091896021
0.394687368586931
0.394686338153547
0.394686619878019
0.394686571714899
0.394685642985284
0.394688603654282
0.394685529605936
0.394684991996554
0.394687181465444
0.394686162956476
0.39468674766576
0.394686935085587
0.394687304587045
0.394686806535684
0.394687178836248
0.394687273965261
0.39468946520583
0.394687551813525
0.394687830254652
0.39468839527332
0.394688326612205
0.39468738213344
0.394688783553439
0.394686871187988
0.394685769126317
0.394688786901191
0.394687542494855
0.394686694207043
0.39468599786019
0.394686369547589
0.394687467893326
0.394687939788925
0.394686215177857
0.394686307368799
0.394687139452305
0.394687064296877
0.394685601685532
0.394687086101945
0.394687604021537
0.394686471453202
0.394686087546313
0.394688009910488
0.394686189582643
0.394686769324089
0.394689833160521
0.394686774657797
0.394686400787394
0.394687524788971
0.394687500984414
0.394686817627174
0.394686657541454
0.394686612375375
0.394688983821776
0.394688801919278
0.394686314099799
0.394687693790367
0.394686769756472
0.394687781924586
0.394686735469442
0.394686570886875
0.394687321214618
0.39468679539534
0.394687243176689
0.394686409693021
0.394686769843752
0.394687334115512
0.394687409587313
0.394686986925933
0.39468802903879
0.394688315036635
0.394686830853583
0.394687842320054
0.394687108456303
0.394688057784432
0.394686674363509
0.39468672337136
0.39468947591757
0.394684882792714
0.394684841041503
0.39469100469566
0.39468537002902
0.394684503631104
0.394686528164838
0.394685698762536
0.394686020668375
0.394687484995173
0.394686619382367
0.394686834219644
0.394686847587093
0.394686793829651
0.394687027908359
0.394686414729154
0.394687399601386
0.394686073555638
0.394689350096658
0.394685984285929
0.394685988820227
0.394686230540065
0.394686283236836
0.39468669693191
0.394686696665626
0.394686325774246
0.394686890133938
0.394686708903377
0.394687230752809
0.394686376452195
0.394687795111571
0.394690165449592
0.394687153129031
0.394687331155083
0.39468738993397
0.394688238195255
0.394687526539997
0.394687629371773
0.394687156019885
0.394688213408482
0.394687555579695
0.39468774880394
0.394686889912088
0.394686487649774
0.394687238903518
0.394687933983866
0.394686584438318
0.39468644413609
0.394685840567399
0.394685709849332
0.394686395467393
0.394685958252236
0.394685936336841
0.394685601100363
0.394685940583556
0.394686262520307
0.394685375392163
0.394685992928633
0.3946856147314
0.394685184668248
0.394687549051467
0.39468742922754
0.39468560771014
0.394689176001004
0.394686850341589
0.394687344964104
0.394687357628256
0.39468730077977
0.394686955651481
0.394686916454688
0.394687085037676
0.394688470019971
0.394687499964639
0.394686800999498
0.394687377235815
0.394687142051098
0.394686907507618
0.394686961545368
0.394686777721259
0.394686595139271
0.394686055729046
0.394686555829363
0.39468520117716
0.394686273766069
0.394685142890259
0.394685101427334
0.394686021457631
0.394685569195895
0.394684618036877
0.394686107035638
0.394686390392766
0.39468510272305
0.394685250807959
0.394686018936747
0.394686660388941
0.394686256786006
0.394688216264934
0.394686833238938
0.394687899206657
0.394687379336139
0.39468676149312
0.39468727628361
0.394687075109842
0.394686858485187
0.394687591868833
0.394687029917426
0.394687407389709
0.394687035705721
0.394687031830519
0.39468832143846
0.394686769173151
0.394686159186187
0.394685709840142
0.394688783034785
0.394685251707203
0.39468542139656
0.394687800334743
0.394686239867953
0.394684955544074
0.394685769123132
0.394685531410989
0.394686392098718
0.394687707113372
0.394685733651071
0.394685438479676
0.394685494625987
0.394687223358102
0.394686297991904
0.394686565087718
0.394686887734598
0.394686971875179
0.394687634410288
0.394686623853768
0.394687099670111
0.39468961108644
0.394687272708987
0.394686734245517
0.394687172644446
0.394688048573741
0.394686805906437
0.394687289969172
0.394687000135029
0.39468707939965
0.394686388050045
0.394686417071927
0.394687002497887
0.394687216479862
0.394685944986605
0.39468650945618
0.39468613487427
0.394687029100626
0.394686483876146
0.39468721147608
0.39468649673209
0.394687188341165
0.394686213421856
0.394687045061976
0.394686761569751
0.394687002994188
0.394687677338973
0.394686711662248
0.394687138904723
0.394686855780008
0.394687567321609
0.394686382279453
0.394686670882167
0.394686678472483
0.394686671610918
0.394686503836121
0.394686616159796
0.394686709550138
0.39468613945309
0.394685518420623
0.394685223030811
0.394689597574376
0.394685453320989
0.394687664727882
0.394686247851996
0.394686384013382
0.394686392966169
0.394687540017484
0.394686482202395
0.394686813833797
0.394686722270141
0.394687051774198
0.394685950101599
0.394688232361677
0.39468793078172
0.394685530417841
0.39468576621402
0.394686362768691
0.394687148845952
0.394686657184395
0.394685581741818
0.394686257084802
0.394686484634185
0.394687055866861
0.394687438811038
0.394687052116859
0.394687342756543
0.394688138447148
0.394687727724717
0.394687337477048
0.394688187065782
0.394687461709869
0.394687145974373
0.394686962576976
0.394688720551277
0.394687279097125
0.394686968243127
0.394688138564671
0.394688983531252
0.394690911894114
0.39468930470406
0.394687202077939
0.394688505019681
0.39468857466196
0.394688368920103
0.394688454390047
0.394687437584398
0.394686935152007
0.394689145045123
0.394688707881338
0.394686704935215
0.394685513180386
0.394685767792757
0.394687211113275
0.394685440307677
0.394685063631249
0.394687075025514
0.394685271528608
0.394685403993822
0.394686828177403
0.394685614933765
0.394686337948317
0.394686050348369
0.394685841018151
0.394685956471995
0.39468569965683
0.394685832930846
0.394686623416328
0.394686012751234
0.394686198253549
0.39468639395426
0.394686392266862
0.394687291624294
0.394687221979109
0.394686735579284
0.394686973223196
0.394686889447603
0.394689492255942
0.394687120517055
0.394687517778582
0.394689181349527
0.394687180364036
0.394686069921162
0.39468756550598
0.394686772673569
0.394687490833907
0.394686596126076
0.394687071196297
0.394690180546869
0.394686669825899
0.394686696979504
0.394687909382316
0.394685175685136
0.394686315006085
0.394687696181128
0.394687549000454
0.394685898871096
0.394685938846432
0.394685940555359
0.39468715062132
0.394686705184779
0.394686579904751