/*--------------------------------*- C++ -*----------------------------------*\
| =========                 |                                                 |
| \\      /  F ield         | foam-extend: Open Source CFD                    |
|  \\    /   O peration     | Version:     4.0                                |
|   \\  /    A nd           | Web:         http://www.foam-extend.org         |
|    \\/     M anipulation  |                                                 |
\*---------------------------------------------------------------------------*/
FoamFile
{
    version     2.0;
    format      ascii;
    class       volScalarField;
    location    "10";
    object      MaU;
}
// * * * * * * * * * * * * * * * * * * * * * * * * * * * * * * * * * * * * * //

dimensions      [0 0 0 0 0 0 0];

internalField   nonuniform List<scalar> 
160000
(
0.394833360822203
0.394676368738013
0.395012841603327
0.394673533067056
0.394537977142639
0.394680253890655
0.394784216723432
0.394405407396095
0.394700766492103
0.3946912314164
0.394610221368875
0.394745422974889
0.394489941034726
0.394783492112682
0.394569782245444
0.394627078498207
0.394861504857163
0.394635335432603
0.394602670027075
0.394766086706521
0.394594263345564
0.394925844118889
0.39451239933114
0.395014981795637
0.394444217851467
0.394827243099959
0.394634880309557
0.394739101454385
0.394648665792592
0.394571011627718
0.394920939904536
0.394612360835425
0.394748164787877
0.394676055182694
0.394580429354064
0.394692136008665
0.39469581392307
0.394672997870464
0.394648442708595
0.394565612928795
0.394583629853692
0.394830539053134
0.394449348871942
0.394760820695146
0.394570269539461
0.394643365323378
0.394530670956657
0.39493397987728
0.394523564257052
0.394731218243672
0.394516674706473
0.394735282651961
0.394469205468014
0.394798826614834
0.394418352375158
0.394834580839488
0.394348865365291
0.394914645149994
0.394314989964164
0.394899792486141
0.394306159560938
0.394895416895609
0.394318926686731
0.394862151172584
0.394401728764688
0.394794938303361
0.39451472436428
0.394758937962953
0.394424861055903
0.394699143194709
0.394652502585345
0.394650238757267
0.3949814777461
0.394365040513782
0.395024288815459
0.394337217736161
0.395079236152598
0.394354020857985
0.395005736016631
0.394343226005633
0.395025410939853
0.394313604844611
0.394983266698182
0.394463965311452
0.395087372838768
0.394549601751221
0.394633169749761
0.394832335056753
0.394750076468665
0.394562178799059
0.394583438319434
0.395001625878244
0.394374261080283
0.394771698578335
0.394474995560178
0.394777351664614
0.394451598886718
0.395081357085041
0.394434601901335
0.394677804316418
0.394575588956014
0.394809170140842
0.394526074372924
0.394708139539066
0.394703903068511
0.394504528527702
0.39473478278245
0.394652919136949
0.394637442509514
0.394827915675053
0.394602410602256
0.394637308860796
0.394833671019844
0.394564926214427
0.394677198603267
0.394569227060739
0.394755622464726
0.394688402582372
0.394692938716293
0.394701411826323
0.394590608694534
0.395192353612933
0.394564644833592
0.394829446300006
0.394653735560282
0.394722454302067
0.394677821500246
0.394649961649773
0.394632393363242
0.394958466043643
0.394424251892869
0.394743689042802
0.394258140142171
0.394779913668772
0.394383320008895
0.394831391586128
0.394696413337222
0.39456699178713
0.395157124009007
0.394616004790873
0.394533649930251
0.394844571396211
0.394824386538713
0.39475285045027
0.39471370385949
0.394669218446924
0.394705085242971
0.39469565364209
0.394373098254453
0.394805249823574
0.394551708818245
0.394699935231987
0.394701699920852
0.394487022244527
0.39479437980747
0.394611521921098
0.394992640798272
0.394550375750711
0.39479117815892
0.394693292809634
0.394816518240929
0.394809753899492
0.394597826816898
0.394628592089396
0.394576982752724
0.394746262099123
0.394573225250919
0.394710919191588
0.394246930532468
0.394672834884609
0.394566292202159
0.394755372906528
0.394847268071714
0.394541454323454
0.395039952855035
0.394674815113924
0.394951508917167
0.394433128388886
0.394984749643104
0.394518569194606
0.394860555074199
0.39467772809373
0.394480984655926
0.394853448094764
0.3944156157675
0.394804970623522
0.394708475863487
0.394688121797153
0.394749119431105
0.394709158759999
0.394739295395776
0.39474030456044
0.394883996474524
0.394526748083572
0.394850976428174
0.394645310769512
0.394748645152971
0.394526515520272
0.394813680212184
0.39467652926644
0.394683461918325
0.39459249007715
0.395152292856795
0.394603124378095
0.394673725660738
0.394731673295083
0.394695079931828
0.394840377621919
0.394512184331856
0.395009801204951
0.39423578398245
0.394991297246421
0.394609835595512
0.394769543431066
0.394682986237348
0.394708903545189
0.394737200461572
0.394714451056569
0.394622062274571
0.395011912017182
0.3945003884152
0.394818186925424
0.394309625297159
0.394870688815866
0.394319295917191
0.39473562859724
0.394612379193183
0.394596840197123
0.395062205100514
0.394493905339617
0.395175624403796
0.394642582452778
0.394800387783087
0.394733939639348
0.394654628668075
0.394576598552043
0.394916671740536
0.394482887792578
0.394836877325929
0.394671312859198
0.394717685926564
0.394519345493507
0.395022860693717
0.394601302478657
0.394846002823366
0.394578041422498
0.394986785049368
0.394267643707863
0.395072994987023
0.394518446670946
0.39509483430591
0.394555626507999
0.394809303539716
0.394722409000838
0.394530760721046
0.394754379487109
0.394630681600347
0.394672414418448
0.394895199635928
0.394589989493361
0.394891662699398
0.394789646728851
0.394747755404586
0.394635268108641
0.394734452577051
0.394676184211189
0.394684960534839
0.394807419812594
0.394773226344367
0.394567306141547
0.394993933200704
0.394487263228175
0.394913908519076
0.394391215814992
0.394830277224918
0.394262141009601
0.394940468096317
0.394507142194954
0.394792817645821
0.394598670964107
0.394759988472111
0.394502784554492
0.394809355904515
0.394634063075678
0.394839300287597
0.394605754153307
0.394611882336211
0.394792482412095
0.394698324280093
0.394593891612822
0.394998617904249
0.39460148850469
0.394775746410656
0.394693772726274
0.394688363220638
0.394682856474769
0.394706419425786
0.394792604445472
0.394562678311382
0.3947168450945
0.394637720129471
0.394647397256222
0.394816143435789
0.394312245833096
0.395065655977812
0.394200403959928
0.394884479396789
0.394563309864516
0.394964340835189
0.394604123052524
0.394823016388899
0.394594458668555
0.394549141987034
0.394676951023121
0.39456014543464
0.394614869433991
0.394915717684437
0.394347579213038
0.394890443403965
0.394680543018258
0.394573912548755
0.394801343025514
0.394380321378982
0.394742078440805
0.394697549638229
0.39451233835956
0.39462519669465
0.394703936881192
0.394604231086156
0.395041103183561
0.394558144696717
0.395044330143456
0.394204941374329
0.394996971271079
0.394631818178169
0.394835021909528
0.394656944458682
0.394863905938637
0.39454985651833
0.39459167007176
0.394879832926221
0.394463802484971
0.394896451980872
0.394659654995411
0.394651541177808
0.394757378730741
0.39478582089618
0.394088258751215
0.394820337912918
0.394693635694158
0.394800579765701
0.394717383077063
0.39458005569771
0.39477923876322
0.394532581905912
0.394818906839575
0.394582432218262
0.39491831804679
0.394697490944153
0.394728476783324
0.394569997458359
0.394686006851956
0.394791810976989
0.394804877108495
0.394697702439352
0.394652387434835
0.394750615835182
0.394704421388366
0.394886562819806
0.394687403467133
0.394681558642019
0.394617584440247
0.394725567156328
0.394706387463485
0.394564730757238
0.394639766096305
0.394922974134427
0.394574915393044
0.394686434743606
0.394645904347279
0.394664838799365
0.394717322821128
0.394736127286639
0.394613946760367
0.394617350227675
0.394771847986677
0.394591666837449
0.394573138217339
0.394773255121052
0.394785235196562
0.394573859001575
0.394617827939341
0.394821142644946
0.394665366868973
0.394858649868873
0.394653723925416
0.394962270462127
0.394584188940867
0.395144332661387
0.394431240137241
0.394829807018834
0.394751326013818
0.394840361374649
0.394736739808457
0.394528394171798
0.394630272716349
0.39479714317898
0.394301162537167
0.394710200347524
0.394678859360309
0.394570744311118
0.394761739445905
0.394314150958665
0.39479975808999
0.394564499195747
0.394613938897695
0.394914134446256
0.394632006846616
0.3945959854677
0.394813524203885
0.394568660314786
0.395075087020628
0.394505112070561
0.394901637429575
0.394394042253981
0.394836971825412
0.394636677796625
0.394734720328691
0.39464410957565
0.394564046532789
0.394931161147778
0.394591605550533
0.394760186660867
0.394656533431554
0.394574736276774
0.394781183549445
0.394588265939456
0.394760716092258
0.394443627678298
0.394713568290984
0.39446709828145
0.394949563674544
0.394311649581871
0.394837534337564
0.39454144325175
0.394689893982365
0.394510236812897
0.394976359618523
0.394484374403332
0.394807688924916
0.39437951500733
0.394895400639183
0.394323785017895
0.394938127915666
0.394300205234148
0.394922040640557
0.394283674619819
0.394975074019616
0.394255429456336
0.394980307486442
0.394240979743232
0.394987303763298
0.394238485698675
0.394951790342294
0.39433624689569
0.394832832888133
0.394466432600158
0.394762466518073
0.394421840634934
0.394694734510975
0.394609898095609
0.394653784457556
0.394983600680841
0.394424316282049
0.395000725653887
0.394409765935017
0.395006913759685
0.394483300229905
0.394924767884142
0.394467786693453
0.394919906326904
0.394398799793722
0.394919524030774
0.394480416758516
0.394942577532531
0.39455299731752
0.394611618753955
0.394960249728531
0.394609137202554
0.394733160530016
0.394561775612546
0.395009956845166
0.394243265245633
0.39483231997067
0.394333752257292
0.394791538257204
0.394448174695366
0.395106380365308
0.394434398039331
0.394681554037847
0.394559540273236
0.394947226577233
0.394508407823714
0.394713756895465
0.39470361087147
0.394478099325745
0.394739334689382
0.394629987713684
0.394627672741227
0.394860342037395
0.394552810292927
0.394740346968961
0.394615175768083
0.394760356330334
0.394440330250625
0.394770242808476
0.39452149274297
0.394857060976769
0.394492887947215
0.394826428113761
0.394584166992933
0.395144860732783
0.394564657436775
0.394682591624462
0.394692572578489
0.394547968928491
0.394754209108576
0.394527783542342
0.394641165960492
0.394956824966126
0.394417695721493
0.394742279863922
0.394188874180471
0.394781488855988
0.39433745017602
0.394823535021774
0.394739793398771
0.394566983992274
0.395155282650134
0.394617487540205
0.39452908369112
0.394935668801475
0.3947612049853
0.394928640262439
0.394507199829623
0.394872566876499
0.39468599327139
0.394697181550244
0.394357001201219
0.394809654977898
0.394551282272062
0.394698431169286
0.394701781554514
0.39447862409893
0.394811962866744
0.394604461139961
0.395040891143178
0.394543803909872
0.394809181376062
0.394625671111504
0.39484884348881
0.394797624782259
0.394522573585553
0.394669916620107
0.394448924182024
0.39477263068182
0.394566410631757
0.394710715486192
0.39428486651786
0.394666456696864
0.394591772719017
0.394713403324243
0.394848335480729
0.394553607335982
0.394909847738707
0.394752313663914
0.39468119479766
0.394585379272815
0.394734248848983
0.394659350251925
0.394745392723631
0.394696423378902
0.394414197511869
0.394929427450801
0.394371625895628
0.394803146109254
0.394760444978839
0.394620789690123
0.394986366002461
0.394503245777595
0.394923187634825
0.394674976885828
0.394892438235826
0.394518123025163
0.394820239421011
0.394729261668703
0.394605078534821
0.394696611715982
0.394655845317154
0.394724210115113
0.394626170829132
0.394587573234135
0.395154363988653
0.394596271778425
0.394754988737618
0.394597821692099
0.394754367328804
0.394818513079783
0.394514421927694
0.39499848682172
0.394297346177233
0.394982267316919
0.394608813996193
0.394757228496261
0.394740207900334
0.394677351083817
0.394901298046092
0.394687670157362
0.394618729415805
0.395013244631247
0.394502289109502
0.39481718860078
0.394301236077403
0.394828928658045
0.394320325719511
0.394731241019475
0.394614314707733
0.394588296121584
0.395066396737106
0.394490326852541
0.395184105923237
0.394640821655273
0.394799430716193
0.394768901079814
0.39447893901032
0.394632899459531
0.394661473030812
0.394624381522089
0.394607309835139
0.394780674401563
0.394644692589447
0.394521637458529
0.39484929380488
0.394607575438864
0.394812459842312
0.394578941075484
0.394978990891649
0.394294660086966
0.395044878417623
0.394539425193059
0.395030108839666
0.394559097380708
0.394810601248671
0.394686768011212
0.394521704339569
0.39484696435158
0.394603449174921
0.394743289612303
0.394648206253082
0.394717970941939
0.394832773786952
0.394855686207521
0.394553925883657
0.394809912851077
0.394533639363947
0.394776280419816
0.394577876281954
0.394870226106896
0.394733816546429
0.394573902533498
0.395019143267427
0.394430572459575
0.394963758737224
0.394367389175646
0.394844459043314
0.394186255577814
0.394966156550071
0.394412109754989
0.394908680241843
0.394406989180776
0.394922462978972
0.394345707698593
0.394867472400815
0.394514504236039
0.394888674522294
0.39459810149249
0.394606986333947
0.39483078704662
0.39457885261426
0.394614841945404
0.394747557079569
0.394664376533048
0.394679907992457
0.394693623402502
0.394698388480347
0.394496197816397
0.394744355346299
0.3947787518627
0.394496593867239
0.39474896771055
0.394627939917361
0.394646797981079
0.394824554220258
0.394287851076235
0.395098430915403
0.394164348487959
0.394887293560321
0.394546056154951
0.395071638619064
0.394595891797675
0.394809357527873
0.394637645736032
0.394530946377437
0.394837750332262
0.394497932342609
0.394665006899802
0.394870665684531
0.394498377454661
0.394848468975935
0.394716305718248
0.394432106844412
0.394806817086585
0.39434407172015
0.394749314482954
0.394677219062045
0.394502908287123
0.394771872124005
0.394615754282167
0.394614263931565
0.394874187291587
0.394555215894919
0.395049895990068
0.394188317398905
0.395000003980977
0.394631057252642
0.394783293858726
0.394759246944289
0.394686633776703
0.394580741097369
0.394565608569709
0.394916293041725
0.394378918948025
0.394895927460216
0.394668870332049
0.394588613637963
0.394799987845626
0.394778644088948
0.394186176901724
0.394810724711143
0.394803919151534
0.394711345965516
0.394736548849934
0.394482681532188
0.394819489783438
0.394489730284676
0.394816534755245
0.394761997811748
0.394840099706912
0.394790038793643
0.39457421603348
0.394723678810132
0.394545932768497
0.394952837409833
0.394643574461069
0.394925604645079
0.394601544271401
0.394815808858672
0.394703401352596
0.394655533658115
0.394685029313887
0.39469538067048
0.394549835526877
0.394846987529096
0.394566215837198
0.394633676761204
0.394600288797452
0.395026827472485
0.394441129918074
0.394769190050463
0.394548647405464
0.394670309811075
0.394738713501959
0.394650312158063
0.394657177780296
0.394560405618856
0.394956774826572
0.394584434362227
0.394596568242452
0.394744860268171
0.394717724748063
0.394654538402691
0.394620453318488
0.394799447491035
0.394775512584007
0.394661785609875
0.394751072106162
0.394851858163791
0.394587715930678
0.395093269605499
0.394435325885587
0.394822647026381
0.394812141441376
0.394682050630707
0.394782274299144
0.394523577128066
0.394619152942586
0.394805611899011
0.394283054712305
0.394716003294408
0.39467904005636
0.394562466067204
0.394768733884951
0.394251228677826
0.394805760666312
0.394559385221087
0.394606395528607
0.394916915017293
0.394630222236868
0.394592355578134
0.394822694808351
0.394563554353117
0.395124140774687
0.394503183650423
0.394877277998131
0.394372665608464
0.394840415216485
0.394638974977039
0.39472252761401
0.394641283741346
0.394560980584601
0.394916840372153
0.394577772292902
0.39476519487548
0.394635284570481
0.394573807793364
0.394805920797722
0.394516122303494
0.39478746782157
0.394350147285221
0.394810065339169
0.394400843335864
0.394984205601537
0.394278136565372
0.394854862800219
0.394534416306732
0.394708421508651
0.394493858090316
0.394974351700437
0.394462845612541
0.394827123695859
0.39434288506205
0.394954912787837
0.394280763276082
0.394983323582892
0.39427294980107
0.394942382562204
0.39429312634541
0.394961841289561
0.394275532581408
0.394984541306914
0.394255180035939
0.394999183950664
0.394240147705836
0.394962985493101
0.394329078010979
0.394841046145202
0.394460882666565
0.394747281505336
0.394426608802988
0.394689029464224
0.394585019545179
0.394670782541094
0.394973581446094
0.394523138225935
0.394916688376709
0.394519703190105
0.39487937292706
0.394603880296372
0.394805457171141
0.394608151584951
0.394782336107154
0.39452115240579
0.39480217636407
0.39455173483882
0.394796876693007
0.394559294487756
0.394604194306295
0.39499251883618
0.394483441970175
0.394869092931015
0.394526794097763
0.395009937647302
0.394200973641165
0.394839305424964
0.394285095147465
0.394793402674984
0.394453762879937
0.39506744355798
0.394440582186189
0.394683857488287
0.394554958880056
0.39499695655788
0.3945051177354
0.394716399964382
0.394703046936393
0.39447563484432
0.394741120546531
0.394619920052481
0.394622852197591
0.394860732988621
0.394511075564115
0.394815683834057
0.394497828077363
0.394861210273056
0.394335796999724
0.394869092274408
0.394427744307308
0.3949364855231
0.394401619028938
0.394878489102027
0.394579217652184
0.395039414972111
0.394567943673564
0.394622283533296
0.394711796637448
0.394451112293296
0.394777730609624
0.394500703213538
0.394648811499418
0.394953597686709
0.394417109681155
0.394738781938497
0.394194868000055
0.394779822834638
0.394326581405707
0.394813827023746
0.39475627863514
0.394568397817415
0.39510307947588
0.394620157709886
0.394526787963821
0.394982130927836
0.394705881093333
0.39496878305772
0.39439616723615
0.394933102709544
0.394675574365361
0.39469606904504
0.394355529555998
0.394809668145835
0.394552496660301
0.39469654139865
0.394701743730182
0.394476756624511
0.394812266604458
0.394604403245101
0.395022308718744
0.394544417468025
0.394816958819979
0.394599322876922
0.394857523606762
0.394784254621072
0.39448994764355
0.394681089982126
0.394418536683839
0.394779633910729
0.394565872356973
0.394708928704353
0.394399032837452
0.394657647443533
0.394643789212823
0.394687161328236
0.394845493219333
0.394592265771269
0.394812297858868
0.394774056553229
0.394531847821266
0.394691455130042
0.394593773063954
0.394728806018697
0.394667232808498
0.394699139272876
0.394395309731026
0.394954269168921
0.394364101656149
0.394800614566774
0.394770289599991
0.394600937004831
0.39505833129452
0.394400624457472
0.394968954010169
0.394652925091731
0.394897179261069
0.394518503363724
0.394812002282777
0.394742491412303
0.394568122743249
0.394816732196274
0.394585130865114
0.39475627467113
0.394610815555294
0.394585515561671
0.395090397131688
0.394591670633812
0.394793188483507
0.394551500942519
0.394758347591018
0.394808629501762
0.39452251930282
0.39492060759236
0.394404815188601
0.394925252501465
0.394610342788548
0.394745269368896
0.394747391376139
0.394671816918483
0.394971344393952
0.394680225236453
0.39461616252989
0.395012252881823
0.394507896787984
0.394811811003475
0.394352352176904
0.394746952430478
0.394387308820394
0.394723157289864
0.394618827796773
0.394582157230473
0.395062834225802
0.394500807444785
0.39514945591685
0.394642036541823
0.394796871131465
0.394776988752646
0.394404405125804
0.394722543411
0.39451877198876
0.39473581710203
0.394497885136304
0.394814446984833
0.394623303919258
0.394547475977712
0.394743683231784
0.394615125979311
0.394793529173819
0.394583191229307
0.394942260251334
0.394382267613254
0.394935628808671
0.394584505794782
0.394942843948779
0.394586747389417
0.394808033948744
0.394665426071116
0.394519451660315
0.394865647183087
0.394572636598432
0.394824365172182
0.394513200932189
0.394755562452014
0.394728087190232
0.394871874021699
0.394471575385274
0.394889960867036
0.394455782517907
0.39481253800799
0.394546581591873
0.394885930659274
0.39468035346765
0.394582076803175
0.395021662898797
0.394430593587297
0.394965418173849
0.394397739277354
0.394844426080166
0.394176732115729
0.394979457151525
0.394370791483736
0.394963569051654
0.394340768340374
0.394991581941036
0.394303812692467
0.39488025902929
0.394479848339328
0.394896863918271
0.394597674318124
0.394603431731859
0.394855984926656
0.394556659472349
0.394651275792121
0.394602839579048
0.394702036603123
0.394627392163745
0.394694068922337
0.394703885231601
0.39442011957858
0.394747371346713
0.394771960443573
0.394469997152539
0.394758120064297
0.394621175808812
0.394651983322633
0.394829491509046
0.394278716534514
0.395104458943758
0.39416014297833
0.3948844796787
0.394542944762147
0.395092438070826
0.394592666550281
0.394807518547634
0.394673143458744
0.394526651827822
0.394903373960636
0.394488868598146
0.39468282530805
0.394779954283938
0.3946262908622
0.394753593735093
0.394730286551296
0.394378929474771
0.394811502745727
0.394371434173286
0.394752421501467
0.394674559808073
0.394500194437947
0.394887783936728
0.394597911642193
0.394657752342741
0.394768434444837
0.394559018705095
0.395046595678589
0.394231981479958
0.394996686353825
0.394632237358907
0.394745844485624
0.394779128418476
0.394594306969149
0.394665372536464
0.394541655429131
0.394928190082694
0.394341430370911
0.394893995280942
0.394680087020433
0.394575323972028
0.394805992336241
0.394769704955435
0.394323582608065
0.394799441806138
0.394819788794982
0.394664693881422
0.394735481889256
0.39446321845555
0.394830051615968
0.394474326821709
0.394812979306355
0.39482920430922
0.394750053909848
0.394795684640454
0.394518374868637
0.394819855834606
0.394497289213089
0.395025783204659
0.394553916742512
0.395006230092843
0.394585001135342
0.394834435737382
0.394701744690676
0.394531621332949
0.394681779589215
0.394700329997208
0.394534131782245
0.394882628755037
0.394460483871679
0.394749758708283
0.394546172241857
0.395049175079714
0.39439206049846
0.394786868687615
0.394528906747657
0.3946729169645
0.394743174181538
0.394610500667721
0.394672498433625
0.394548751633555
0.395037243458236
0.394584497544201
0.394608179982032
0.394723348354924
0.394685030174843
0.394723359969829
0.394617958765813
0.394789624589322
0.394787614327651
0.394551634356649
0.394762729793101
0.394780963935888
0.394597078330485
0.394959738918059
0.394477327906047
0.394806694938154
0.39483740695116
0.39451257706919
0.394825864777941
0.394518777283252
0.394609512552248
0.39481258426582
0.394282287094541
0.394720847091636
0.394679530448488
0.394556009595386
0.394773971973363
0.394212454478798
0.394811050088304
0.394554083233345
0.39459874207344
0.394901827909051
0.394629426397756
0.394589267067188
0.394827381056607
0.394560064197787
0.39514705912908
0.394502724765406
0.394858062400043
0.394369532522698
0.394841499861499
0.39464176194564
0.394701913737392
0.394639267569726
0.394560507506926
0.394879504070618
0.394564789653621
0.394768851763414
0.394615524774843
0.394574214459997
0.394815032701929
0.394450978603757
0.394810557156726
0.394281722960919
0.394881148100795
0.394351478682768
0.395007406673489
0.394262555386145
0.394868918251606
0.394530386604726
0.394718241416072
0.394478552388198
0.394957307377536
0.394449329401464
0.394838690121882
0.394326984902936
0.394990077572684
0.394262523017789
0.395006559935005
0.394270839486296
0.394949194792347
0.394333439447478
0.394917411775298
0.394335958316798
0.394961416696975
0.394306098976588
0.394984958303461
0.39427536476126
0.394957746052866
0.394329064848271
0.39484675051632
0.394457464178723
0.394726069490947
0.394464047204223
0.394673690427103
0.394569936764052
0.394706987724788
0.394903317120235
0.394637856336423
0.394789571141407
0.394647911029991
0.39471566431356
0.394712124245164
0.394672550270556
0.394748694225973
0.394616720529023
0.394658137728722
0.394657032638557
0.394665821899914
0.394658889296085
0.394589160801031
0.394597646995571
0.395006745705883
0.394372737861931
0.394969958241393
0.394480955252281
0.395007965154647
0.394172688671528
0.394839957859567
0.394257982005217
0.394793381396903
0.394486616017981
0.394993816844335
0.394465024695124
0.394685082725345
0.394552776545899
0.395026545578711
0.394504618353701
0.394718501007708
0.394702261749422
0.394476234433457
0.39474127486341
0.394610977506428
0.394619360014779
0.394858355049707
0.394479367733559
0.394860170895
0.394416811674664
0.394936593694052
0.394254321952924
0.394948568348682
0.394362078568705
0.394996134139276
0.394335861201458
0.394903257554493
0.394576018651595
0.394911452911214
0.394573514170361
0.394584472328224
0.39472830428805
0.394367690337608
0.394788502770955
0.394485549417527
0.39464944326073
0.394949086298343
0.394420885828528
0.394732112215397
0.394234681974694
0.394769043654363
0.394327534372892
0.394800045503525
0.394776819283431
0.394571120724305
0.395021468003689
0.394624066817657
0.394525096733725
0.39501575234319
0.394662213295489
0.394994016620901
0.394298870124587
0.394965349858761
0.394666211314797
0.394693551916625
0.394361939485526
0.39480675657637
0.394555027928705
0.39469438472497
0.394701590995818
0.394476836531717
0.39480960816978
0.394609095364966
0.394967267933604
0.394549348161059
0.394818752180531
0.394584887560886
0.394865449183855
0.394766302207692
0.394469421765072
0.394689024816026
0.394404573279488
0.394785585733012
0.394566483785852
0.394702629186743
0.394552291184517
0.394638659997744
0.394694532977177
0.394674750400578
0.394822708461718
0.394640518055817
0.394715365705712
0.394785452690177
0.394417974144211
0.394788462209354
0.394478415240216
0.394764912344918
0.394621456768158
0.394699779094532
0.394378246576886
0.394963678737371
0.394358550352573
0.394797552262026
0.394780432895845
0.394584457293361
0.395094224400401
0.394312326228399
0.394994574430582
0.394640003919906
0.394899070273365
0.394519467944788
0.394796249077062
0.394752995241801
0.394550754336579
0.39492253062384
0.394552526654999
0.394771748806566
0.394598663231809
0.394585374751845
0.394988423393373
0.394588302744974
0.394811085859211
0.394526242906382
0.394764481633101
0.394772909330433
0.394562270516977
0.394783752253943
0.394538132216533
0.394790922427616
0.394616078844731
0.394696938337684
0.394754568565155
0.394666964618963
0.39502030415753
0.39467527505333
0.394614003736561
0.395009302725707
0.394517495498478
0.39478772199561
0.394448344155598
0.394665338898781
0.394525227023657
0.394697280412888
0.394653872295867
0.394576773722716
0.395040014232888
0.394522587264922
0.395038591441925
0.394646123170401
0.394793092321058
0.394784408315189
0.39434999019053
0.394806647990733
0.394404352794608
0.394839539616743
0.394409663276413
0.394830499766999
0.394593066797565
0.394634029463436
0.394674811620085
0.394622971727695
0.39475811849407
0.394604153275961
0.394839333149135
0.394512395774861
0.394778125513931
0.394643485325614
0.394828224928024
0.394656236376307
0.394783371740957
0.394644480787139
0.394518657584951
0.394873743951347
0.394537387938637
0.394877779638828
0.394404390796834
0.394784015312439
0.394622691022207
0.394892438623291
0.394418312806942
0.39494940205637
0.394414993315947
0.394829619312555
0.394529136311912
0.394901612195471
0.394639883871992
0.394592287848165
0.395017158487213
0.394450741207914
0.394950032078268
0.394486095905357
0.394843098609567
0.394169499447166
0.394990193150208
0.394350169156436
0.395000135005177
0.394301974636458
0.395043354730546
0.394282433327826
0.39489074254838
0.394464119766887
0.394902414865649
0.394602719561505
0.394600050502405
0.394872821302666
0.394535571447082
0.394672782906287
0.394478770038361
0.394718968946895
0.394592467700378
0.394695136359864
0.394708333671118
0.394367710400442
0.394751405724942
0.394763345238633
0.394452404902573
0.394767182507066
0.39461264786213
0.394668918436757
0.394832384954061
0.394273702686757
0.395106835356635
0.394161034518679
0.39487727217562
0.394541404246286
0.395089672430732
0.394590537006209
0.394804980786264
0.394694217983302
0.394524549151145
0.394946353122771
0.394482978890136
0.394689316796053
0.394703175914954
0.394748998302968
0.394669685098116
0.394737855787541
0.394347727481663
0.394813177672774
0.394436124532086
0.394752580952217
0.394681197496717
0.394497140964576
0.394985040757455
0.394581358483702
0.394720400331524
0.394689861473184
0.394565055535555
0.395022812279149
0.394316584282718
0.394984877108522
0.394634688387047
0.394712268419314
0.394793372500597
0.394520062840521
0.394755250982732
0.394493879019428
0.394938943336034
0.394312407698294
0.394891228072045
0.394687646452427
0.394565083286664
0.394814343328846
0.394754844938608
0.394498380520874
0.394782462670649
0.394833938167685
0.394639197544372
0.394735600002208
0.394454361067241
0.394828648768014
0.394464900863512
0.39480206409263
0.394878117200579
0.394676787654872
0.394806597838153
0.394488057910571
0.394898566106045
0.394462934220212
0.39508494121901
0.394483013089829
0.395048103997984
0.394571180817702
0.394845604413719
0.394699356441195
0.394431275778942
0.394679068779936
0.394704427460656
0.394524236579118
0.394899033328713
0.394377703008195
0.394869421994076
0.394454193862927
0.395071371743906
0.394349126786239
0.394797722457126
0.394518557131539
0.394672827288456
0.394746104884921
0.39458514288137
0.394685231052617
0.39453842538926
0.395090329842518
0.394586802553965
0.394613902038277
0.394713035624589
0.394672678841078
0.394776406139018
0.394615774781429
0.394777367122227
0.394798834005521
0.394455670023379
0.394775612947481
0.394696954179109
0.394632706194528
0.394782826282078
0.394578509538203
0.394734519967635
0.394849013648288
0.394363988003301
0.394844969022051
0.394514185472816
0.394607039572723
0.394817581027208
0.394321845444982
0.394724496619718
0.394681759922322
0.394552041143287
0.394776957601469
0.394198374702025
0.394815000832717
0.39454868954819
0.394591650817123
0.394858501084192
0.394629740429903
0.394586970074907
0.394827499201017
0.394559614287168
0.395136132680326
0.394503541157011
0.394846171981893
0.394391202869035
0.394840123305698
0.394646733457934
0.394681607571135