/*--------------------------------*- C++ -*----------------------------------*\
| =========                 |                                                 |
| \\      /  F ield         | foam-extend: Open Source CFD                    |
|  \\    /   O peration     | Version:     4.0                                |
|   \\  /    A nd           | Web:         http://www.foam-extend.org         |
|    \\/     M anipulation  |                                                 |
\*---------------------------------------------------------------------------*/
FoamFile
{
    version     2.0;
    format      ascii;
    class       volScalarField;
    location    "10";
    object      p;
}
// * * * * * * * * * * * * * * * * * * * * * * * * * * * * * * * * * * * * * //

dimensions      [1 -1 -2 0 0 0 0];

internalField   nonuniform List<scalar> 
160000
(
0.750000014867953
0.750000153211894
0.750000635425145
0.749999764429946
0.750000100311251
0.750000231288752
0.750000304067485
0.750000263621525
0.750000103510226
0.750000203070257
0.750000215503603
0.750000294116502
0.75000058899447
0.749999967139098
0.750000307737211
0.750000257516585
0.750000371833394
0.750000268555814
0.750000514642943
0.750000138264411
0.750000474886492
0.750000279505991
0.75000061738616
0.749999768613091
0.750000739089077
0.750000216721247
0.750000341613046
0.750000210470559
0.750000856287858
0.750000109812648
0.750000367299935
0.750000579178992
0.750000413696693
0.750000594220051
0.750000409642558
0.750000730875608
0.750000403770503
0.750000539895708
0.750000670340595
0.750000646371951
0.750000617047297
0.750000508493531
0.750000539140612
0.750000734744351
0.75000060171331
0.750000704413048
0.750000557551501
0.750000625386812
0.750000604274211
0.750000681506114
0.750000501559255
0.750000680505558
0.750000461611677
0.750000682672285
0.750000499524828
0.750000676900417
0.750000438734619
0.750000586227036
0.75000046447755
0.75000062269494
0.750000478714743
0.750000542804178
0.750000430889258
0.750000579850418
0.750000352932958
0.750000596788207
0.750000296760829
0.750000672906365
0.750000128517334
0.750000334702393
0.750000629969908
0.75000021310239
0.750000529893271
0.750000159046378
0.750000554433642
0.75000014317405
0.750000682893793
0.749999989265675
0.750000573330845
0.750000320216153
0.750000346918145
0.750000047781993
0.750000457016301
0.750000382392451
0.750000037701618
0.750000320772098
0.750000158041172
0.750000018425112
0.75000038773049
0.750000004178505
0.75000028894565
0.74999996446859
0.750000243446744
0.749999984844218
0.750000170368936
0.750000009713373
0.750000267519538
0.750000015996582
0.74999991385403
0.75000029248333
0.750000103803758
0.749999743202555
0.750000296966561
0.749999888920764
0.749999949432758
0.750000165324787
0.749999761316241
0.750000120908042
0.749999689704309
0.750000121499962
0.749999704672804
0.750000322432821
0.74999938304898
0.750000245057086
0.749999580946275
0.750000138011103
0.749999793677887
0.749999981959982
0.749999499879979
0.750000606444907
0.749999236152791
0.749999775853829
0.750000047483111
0.749999722499481
0.749999847124473
0.749999609743412
0.749999817701207
0.749999557843152
0.749999797404054
0.749999547039554
0.749999515768733
0.749999657158542
0.749999593104234
0.749999586165759
0.749999518387522
0.749999448321708
0.749999137623622
0.750000080032917
0.749999116632195
0.749999602478054
0.749999524284357
0.74999959307946
0.749999316086891
0.749999499984297
0.749999593409783
0.749999573673229
0.749999227910769
0.749999816787971
0.749999525250881
0.749999399151774
0.749999853099499
0.749999278524652
0.749999733548452
0.749999932446095
0.749999496261669
0.749999872095592
0.749999707520662
0.750000159697399
0.749999576314672
0.750000126279005
0.749999926826206
0.750000069744819
0.749999909876437
0.750000219985305
0.750000007014435
0.750000325699864
0.750000077775194
0.750000144409875
0.750000218574898
0.750000335911437
0.750000323609171
0.75000028753155
0.750000187508523
0.750000609005878
0.750000225063084
0.750000486274913
0.750000107847378
0.750000738278116
0.750000199849493
0.750000836175203
0.750000156527371
0.750000452403849
0.750000508978974
0.750000399833547
0.750000467390212
0.750000435162181
0.750000494376847
0.750000281150621
0.750000516361533
0.750000503033622
0.750000224794261
0.750000377724882
0.750000244297159
0.75000040215325
0.749999995418439
0.750000490419389
0.750000002095467
0.750000592330992
0.749999808183481
0.750000246848214
0.750000011131734
0.750000366253447
0.750000205069637
0.749999795845828
0.750000346260552
0.74999996550915
0.750000166348111
0.749999903403965
0.750000258229114
0.749999941786613
0.750000043580598
0.749999866599189
0.750000118027125
0.750000006392114
0.750000174357817
0.749999754427542
0.750000223599471
0.749999929830238
0.750000263614028
0.750000037950436
0.750000246170718
0.749999968009959
0.750000126985196
0.750000316417164
0.750000225842055
0.750000165210487
0.750000121070864
0.750000491787806
0.750000085655692
0.750000287156101
0.750000209430885
0.750000398747167
0.750000188113211
0.750000327904222
0.750000362226642
0.75000046043031
0.750000026184865
0.750000729459979
0.750000141166421
0.750000426919128
0.750000271037684
0.750000623371031
0.750000369119716
0.750000473641571
0.750000166348873
0.750000600169779
0.750000318852883
0.750000460092418
0.750000155120193
0.750000280918025
0.750000329179884
0.750000368626585
0.75000009758315
0.750000247043938
0.750000153931186
0.749999758648096
0.7500005352676
0.750000058601087
0.749999925192559
0.750000105868733
0.749999624683671
0.750000623067696
0.749999853725216
0.750000027271329
0.749999781720937
0.750000275620703
0.749999869109879
0.749999820872001
0.74999999060706
0.749999665582796
0.750000116362734
0.74999956287879
0.749999992271557
0.749999478908446
0.749999630698877
0.749999761980141
0.749999629258763
0.749999407404376
0.749999670569972
0.74999930524025
0.749999555141766
0.749999360373132
0.749999742517373
0.749999119232791
0.749999440525062
0.749999182515802
0.749999637760569
0.749999306108711
0.749999013141881
0.749999569045276
0.749998943389931
0.749999545346996
0.749998999420747
0.749999150892462
0.749999256849558
0.74999921765867
0.74999902625982
0.749999270377067
0.749999108599066
0.749999434993238
0.749998724392751
0.749999641917812
0.749999148537433
0.749999296093294
0.749999268935934
0.749999798128584
0.749998763648758
0.749999730657007
0.749999398522656
0.749999501170172
0.749999741249781
0.749999368316287
0.749999572315341
0.749999614390406
0.749999896407826
0.749999546829928
0.749999635154024
0.750000072042654
0.749999574303134
0.749999939925985
0.749999888028862
0.750000072349745
0.74999975007901
0.750000351319575
0.749999960424938
0.75000035362654
0.750000144317953
0.750000111817075
0.750000553623781
0.750000380380765
0.750000502531885
0.750000370896776
0.750000696679294
0.750000495224903
0.750000636028269
0.750000473739945
0.750000872333365
0.750000369019213
0.750000786136915
0.750000762388573
0.750000581021039
0.750000896709352
0.750000623704749
0.75000079874106
0.750000628595983
0.750001021133406
0.750000785122311
0.750000756859313
0.750000742368863
0.75000101551748
0.750000586212267
0.750001026067875
0.750000734552359
0.750001109994428
0.750000347445223
0.750000991241414
0.750000946966275
0.750000583769305
0.750001039017493
0.750000674374815
0.750000960622048
0.750000637915731
0.750001091283493
0.750000636992801
0.750000807199167
0.750000822936417
0.750000684040595
0.75000113611602
0.750000556880229
0.750000949881076
0.750000477940671
0.75000112534487
0.750000542112213
0.750000628712487
0.750000451066708
0.750001026011812
0.750000201869544
0.750000858119608
0.750000362731662
0.750000516999131
0.750000634415375
0.750000354733487
0.750000225935494
0.750000779979932
0.750000084295709
0.750000411393508
0.750000633410266
0.750000187607117
0.750000205278861
0.750000333053882
0.750000706578148
0.750000019569249
0.750000443463097
0.750000282067409
0.750000217739079
0.750000536896509
0.750000152154597
0.750000300080797
0.750000170367767
0.750000277210871
0.750000007960585
0.750000273006204
0.750001033652117
0.749999616058051
0.750000081006017
0.75000029140622
0.750000406457849
0.750000320310303
0.750000066291017
0.750000211850147
0.750000255363594
0.750000398672585
0.750000831627013
0.749999826505536
0.750000307625161
0.750000237337331
0.750000429849309
0.750000276671569
0.750000669666125
0.75000007067299
0.75000059416176
0.750000276430902
0.750000779708898
0.749999460621214
0.750000978036734
0.750000207900312
0.750000399374497
0.750000222972928
0.750001210790758
0.750000002357173
0.750000359190948
0.750000652545165
0.750000374716784
0.750000644863202
0.750000341727452
0.750000850815423
0.750000334195799
0.750000566966292
0.750000768990098
0.750000738768571
0.750000643554045
0.750000454457041
0.750000479796121
0.750000800811054
0.750000592343655
0.750000763544717
0.750000528551779
0.750000651329209
0.75000062029087
0.750000759329133
0.750000472063705
0.750000760274955
0.750000419015067
0.750000774374573
0.750000488301147
0.750000766167765
0.75000038472742
0.750000620068607
0.750000433321292
0.750000696950445
0.750000469756874
0.750000578111806
0.750000398580268
0.750000644344527
0.750000292647478
0.750000690337922
0.750000227824509
0.750000831981104
0.74999997538532
0.750000329033404
0.750000815067499
0.750000183190405
0.75000064784982
0.750000069574967
0.750000650994727
0.750000015509038
0.750000826098541
0.749999741308869
0.750000652115352
0.75000027265513
0.750000312047449
0.749999894926353
0.750000563708417
0.750000513008989
0.749999964847775
0.75000040903226
0.750000149977262
0.749999954839178
0.750000519020178
0.749999937778643
0.750000352708111
0.74999986139951
0.750000284128122
0.749999913060501
0.750000211183101
0.750000005830647
0.750000403449511
0.750000017791675
0.749999842324184
0.75000042628657
0.750000100540628
0.74999954172924
0.750000401083222
0.749999790786449
0.749999916209333
0.750000273243469
0.749999680230036
0.750000264363157
0.749999614125479
0.750000298019652
0.749999657685263
0.750000585425228
0.749999088023251
0.750000380777523
0.749999384737224
0.750000275684869
0.749999757719885
0.750000069099336
0.749999355540149
0.750001252313792
0.74999876322605
0.74999970330859
0.750000237881716
0.749999715558206
0.749999906533867
0.749999523985831
0.749999844139322
0.749999443872651
0.749999815546112
0.749999455465329
0.749999424364302
0.749999709941828
0.74999964164704
0.749999661524725
0.749999544285106
0.749999438966886
0.749998990995007
0.75000061100989
0.749998972682829
0.749999684200639
0.749999550821516
0.749999600923544
0.749999151226255
0.749999430609317
0.749999621562263
0.749999592272916
0.749999101864143
0.750000052178727
0.749999574130076
0.749999355902645
0.750000003360511
0.749999074532902
0.749999761431828
0.750000038106044
0.749999339660383
0.749999889265196
0.749999644411166
0.750000322032431
0.749999391067605
0.750000220620681
0.74999989712787
0.750000092713061
0.749999808168332
0.750000273133088
0.749999914119476
0.750000394507594
0.74999997581814
0.750000077252907
0.750000185594941
0.750000389986236
0.75000034176738
0.750000269896491
0.750000079196615
0.750000719034615
0.750000082856771
0.750000464148669
0.749999857328495
0.750000879581255
0.750000067340353
0.750001052153087
0.74999997010462
0.750000410683078
0.750000492536712
0.750000329823917
0.750000425189127
0.750000394231893
0.750000475499375
0.750000171505288
0.750000536432626
0.750000534404097
0.750000084150056
0.750000336689379
0.75000014373482
0.750000426229562
0.749999831476071
0.750000640370713
0.749999918524163
0.750000829784875
0.749999584844364
0.750000256489569
0.749999894781241
0.750000464875554
0.750000193048224
0.749999568691615
0.750000433277417
0.749999868606691
0.750000197859272
0.749999814733233
0.750000388593737
0.749999895735003
0.750000052834034
0.749999780622512
0.750000192575474
0.750000017701327
0.750000266662974
0.749999600440077
0.750000307281803
0.749999853804302
0.750000360670973
0.74999999508727
0.750000283529125
0.749999841398605
0.750000079497757
0.75000040165199
0.750000245929604
0.750000147008569
0.750000062136338
0.75000063775508
0.749999979199302
0.750000288849756
0.75000016610618
0.750000478289806
0.750000155684775
0.750000390211159
0.750000436026939
0.750000569140531
0.749999866677345
0.750000931889642
0.749999988579521
0.750000425876754
0.750000190686704
0.750000773255913
0.750000379360776
0.750000546842359
0.750000065065408
0.750000759438242
0.750000317581226
0.750000536481631
0.750000061687739
0.75000028616083
0.750000403528274
0.750000505754939
0.750000103656654
0.750000360042878
0.750000233534221
0.749999687383189
0.750001006729208
0.750000164279004
0.749999880514984
0.750000138207676
0.749999427929321
0.750001022683245
0.749999842253223
0.750000088201698
0.749999732417578
0.750000496901578
0.749999873746215
0.749999772786207
0.75000005004213
0.74999956672714
0.750000290118472
0.749999472652279
0.750000152130062
0.749999379156579
0.749999660724478
0.749999900194437
0.749999726384533
0.74999937950846
0.749999795259621
0.749999239644832
0.749999637392774
0.749999358375877
0.749999945118593
0.749998971826261
0.749999455177478
0.749999107971125
0.749999835975956
0.749999340475516
0.749998898420699
0.749999811982045
0.749998827336856
0.74999983392105
0.749998907317046
0.749999140160378
0.749999320308304
0.74999928103288
0.749998986678416
0.749999381517028
0.749999121285344
0.749999604806709
0.749998479430757
0.749999870450032
0.749999090330581
0.749999263623246
0.74999920278705
0.749999961159871
0.749998240875547
0.749999824274452
0.749999332830128
0.74999951097077
0.749999861712151
0.749999268670707
0.749999548761317
0.749999619279668
0.750000016263744
0.749999452149079
0.749999550420809
0.750000221207832
0.74999942386935
0.749999979262481
0.749999885814633
0.750000149913435
0.749999630840644
0.7500005307688
0.749999886751909
0.750000442860442
0.750000059264179
0.749999970327152
0.750000631372653
0.750000334653817
0.750000501852344
0.750000258566811
0.750000757040287
0.750000413638703
0.75000062459034
0.750000362190388
0.750000977972357
0.750000203310039
0.750000861378935
0.750000820776502
0.750000537686822
0.750000984824941
0.750000545720791
0.750000770386837
0.750000515288477
0.750001108689993
0.750000749253932
0.750000682990371
0.750000679680859
0.750001107595162
0.750000471640254
0.750001147247925
0.750000708771979
0.750001242113497
0.750000044494193
0.750001044376089
0.75000099114983
0.750000450728448
0.750001157066697
0.750000619599001
0.75000104671475
0.750000559662903
0.75000123004842
0.750000513613062
0.750000741201244
0.750000788700648
0.750000582904861
0.750001304270295
0.750000412348677
0.750001020033453
0.75000030928166
0.750001327228832
0.75000042982792
0.750000560135733
0.750000343099091
0.750001270058119
0.750000040454749
0.750001067084063
0.750000325395549
0.750000557880322
0.750000737026761
0.750000296749901
0.750000099343264
0.750000987643899
0.749999940813514
0.750000496442842
0.750000852661238
0.750000167317207
0.750000164055873
0.750000380866452
0.750000952798523
0.749999850716353
0.75000048183902
0.75000023196047
0.750000162048659
0.750000679554372
0.750000106047838
0.750000359881445
0.750000181946616
0.750000386717857
0.750000020997099
0.750000381151324
0.750001251641723
0.74999954997336
0.750000079026045
0.750000347660974
0.750000491121579
0.75000036271614
0.750000066068661
0.750000225929652
0.750000296821654
0.750000486392838
0.75000098474871
0.749999759729587
0.750000311096602
0.750000233705765
0.750000483800901
0.750000284269797
0.750000793036564
0.750000029769377
0.750000694063928
0.750000278814529
0.750000902230176
0.749999269660384
0.750001121635511
0.750000226080324
0.750000448398743
0.750000247040755
0.750001454270384
0.749999940027519
0.750000375513001
0.750000704640231
0.750000351939476
0.750000697003295
0.750000294790244
0.750000948400133
0.750000287757106
0.750000603034094
0.750000830449402
0.750000821508705
0.750000657145422
0.750000434958938
0.75000043849273
0.750000860158332
0.75000058614549
0.750000819289832
0.750000509938576
0.750000684668334
0.750000629185501
0.750000830136942
0.750000453360618
0.750000829786848
0.750000395001293
0.750000850205767
0.750000483781206
0.750000839575731
0.750000351203175
0.750000655480362
0.750000411325413
0.750000758130454
0.750000462102246
0.750000615475346
0.750000375571589
0.750000700804848
0.750000250616965
0.750000766619535
0.750000176906135
0.750000956779045
0.749999874055337
0.750000335330745
0.750000924194252
0.750000178898411
0.7500007237921
0.750000022426357
0.750000706926859
0.749999935423228
0.750000911970963
0.7499995683326
0.750000702491634
0.750000239968433
0.750000277629384
0.749999806405227
0.75000061586382
0.750000609806951
0.749999919465753
0.750000475772571
0.750000135460253
0.749999928527247
0.750000595926529
0.74999990404104
0.750000382058814
0.749999804772485
0.750000303252019
0.749999876366399
0.750000229251868
0.750000016906255
0.750000484063249
0.75000003106593
0.749999788520232
0.750000521577173
0.750000090614981
0.749999423935092
0.750000438513446
0.749999724203619
0.749999904674489
0.750000338691419
0.749999630623201
0.75000037156944
0.749999565071042
0.750000428178149
0.749999632229087
0.750000767527418
0.749998890432299
0.750000496709736
0.749999255880531
0.750000376958151
0.749999720637734
0.750000106534343
0.74999925099681
0.750001446526893
0.749998623214506
0.749999639515883
0.750000374544727
0.749999708508795
0.74999994936449
0.749999460456131
0.749999863179419
0.749999368474231
0.749999815491686
0.749999402035763
0.749999355599639
0.749999755652016
0.749999668595835
0.749999726821643
0.749999557640081
0.749999436069769
0.749998895283494
0.750000944447622
0.749998868701966
0.749999730911139
0.749999583569022
0.749999594987243
0.749999056631744
0.749999372042985
0.749999659992412
0.749999593865904
0.749999035472105
0.750000219995132
0.749999607153625
0.749999344480185
0.750000099246524
0.749998942548537
0.749999789736467
0.750000098435359
0.74999924364652
0.749999891544205
0.749999612746218
0.75000040455727
0.749999297950849
0.750000273662908
0.749999869555969
0.750000112484304
0.749999728515988
0.750000312774457
0.749999840809563
0.750000444189119
0.749999894648243
0.750000036544594
0.750000144530027
0.750000432953914
0.750000335299725
0.750000262551732
0.749999992223944
0.750000796666658
0.749999970046879
0.750000444573248
0.749999702745398
0.750000967868495
0.749999966197619
0.750001194930004
0.749999839383005
0.750000372767743
0.750000461865783
0.750000277762902
0.750000375996031
0.750000366581156
0.750000439470634
0.750000099630244
0.75000052411539
0.750000553766237
0.749999973287158
0.750000302435879
0.750000054471701
0.750000439467152
0.74999971230833
0.750000731809444
0.749999857357018
0.75000098384081
0.749999423124584
0.750000264664911
0.749999804025007
0.750000528661889
0.750000163720369
0.749999424667404
0.750000465130163
0.749999798415029
0.750000215535242
0.749999748681523
0.750000478697015
0.749999856914561
0.750000061556515
0.749999721613433
0.750000250091226
0.750000015692366
0.750000327525157
0.749999496308594
0.750000357320918
0.749999804610748
0.750000427564848
0.749999969053477
0.750000300845325
0.749999763513375
0.750000036750816
0.750000470430617
0.750000252619127
0.750000145026739
0.750000016221303
0.750000743983178
0.749999903481717
0.750000304364069
0.750000135155255
0.750000541349254
0.750000135582381
0.750000446786
0.750000485653874
0.750000651379951
0.749999767005257
0.750001072315307
0.749999881458209
0.750000442292517
0.750000135674691
0.750000893121792
0.750000383417372
0.750000609157003
0.750000003523201
0.750000887653719
0.750000319223104
0.750000598885071
0.750000010170745
0.750000301146385
0.750000457435953
0.750000613887484
0.750000121166711
0.750000452959468
0.750000292244576
0.749999667479527
0.750001210626467
0.750000245562865
0.749999862836398
0.75000016731991
0.749999313134733
0.750001254101514
0.749999852606156
0.750000134751453
0.749999728120069
0.750000639151067
0.749999896210168
0.749999742775095
0.750000108668869
0.749999509995193
0.750000406624117
0.749999425433829
0.750000267634976
0.749999319462304
0.749999699134266
0.749999994865221
0.749999813363355
0.749999368981352
0.749999890974147
0.749999212813045
0.749999701261964
0.749999367103756
0.750000085034847
0.749998892356987
0.749999462759174
0.749999082744699
0.749999965626156
0.749999374118011
0.749998835119632
0.749999951202259
0.749998748868274
0.750000009700894
0.749998854438924
0.749999142680266
0.749999365551513
0.749999340564201
0.74999896729109
0.749999470993816
0.749999130158692
0.749999731572249
0.749998328403228
0.750000015933934
0.74999906367424
0.749999237582471
0.749999167301934
0.750000053242688
0.749997833490577
0.749999884884691
0.749999283815063
0.749999522944293
0.749999926830401
0.749999213600991
0.749999524959174
0.749999634177932
0.75000008172908
0.749999404275025
0.749999487297573
0.750000325382845
0.74999931910006
0.750000007764337
0.749999876542924
0.750000199374716
0.749999559282612
0.750000648851019
0.749999827486828
0.750000514000754
0.749999980963865
0.749999873828719
0.750000674683954
0.750000287626153
0.750000507994287
0.750000166488016
0.750000799819779
0.750000337272573
0.750000618765964
0.750000278728375
0.750001038210173
0.750000088177132
0.750000911332176
0.75000084618802
0.750000514496358
0.75000102397927
0.750000502992804
0.750000735296877
0.750000445161188
0.750001145192338
0.750000729217746
0.750000622165456
0.750000644428483
0.750001151700141
0.750000403092587
0.750001212112034
0.750000698413144
0.750001312780499
0.749999844815682
0.750001073185078
0.750001007422421
0.75000036766193
0.750001219245375
0.750000592962054
0.750001091946829
0.750000517432139
0.750001301863017
0.750000432645488
0.750000673871166
0.750000775789126
0.750000498142319
0.750001410606317
0.750000315110613
0.750001061095104
0.750000193351142
0.750001456076069
0.750000353494636
0.75000050637577
0.750000280019412
0.750001422758021
0.749999946178482
0.750001201693452
0.750000315155646
0.750000584033587
0.750000805946377
0.750000273103415
0.750000015363928
0.750001145276507
0.749999842853693
0.750000575074779
0.750000993216484
0.750000178040832
0.750000134956067
0.750000418412986
0.750001130681805
0.749999753200542
0.75000051290343
0.750000198078531
0.750000136162805
0.750000784290818
0.750000086151046
0.750000418833453
0.750000196504254
0.750000478040845
0.750000045543968
0.750000481499956
0.750001366449109
0.749999539920527
0.750000086939957
0.750000401908526
0.750000564312796
0.750000393696446
0.750000093068855
0.750000242240331
0.750000339291497
0.750000562925873
0.750001079367307
0.749999744884085
0.750000315914838
0.750000241534695
0.750000536516354
0.750000288845065
0.750000897206636
0.750000003192414
0.750000783344771
0.750000282795648
0.750001000566315
0.749999157586208
0.750001212784927
0.750000263159194
0.750000489088454
0.750000276886305
0.750001624831886
0.749999902529365
0.750000410286727
0.750000741465981
0.750000339053929
0.750000753560392
0.750000259412938
0.75000103451269
0.75000025434879
0.750000646952802
0.750000863659562
0.750000900504471
0.750000659342995
0.750000440959274
0.750000407767251
0.750000918149273
0.750000580666848
0.750000875548452
0.750000496643413
0.750000725013673
0.750000630775652
0.750000898787238
0.750000439483106
0.750000894504772
0.750000381686718
0.750000917135131
0.750000481944105
0.750000904276736
0.750000329873607
0.750000693724385
0.750000393300393
0.750000812126052
0.750000453213125
0.750000656252013
0.750000356827543
0.750000754321741
0.750000218568309
0.750000833896544
0.750000135401814
0.750001066088891
0.749999805968907
0.750000350899288
0.750000982524381
0.750000193183901
0.7500007702575
0.750000004405267
0.75000073248598
0.749999888004983
0.750000959484451
0.749999443943597
0.75000073633132
0.750000218910868
0.75000024252457
0.749999764074499
0.750000628041156
0.750000690056552
0.749999891574025
0.750000528051077
0.750000113350353
0.749999929317794
0.750000634021807
0.74999989328992
0.750000385630951
0.749999781431043
0.750000306733329
0.749999864942525
0.750000229524335
0.750000039513856
0.750000525014186
0.750000053619053
0.749999746189952
0.750000593406237
0.750000075284179
0.749999366636984
0.750000433754923
0.749999678177605
0.749999909732638
0.750000374291623
0.749999604514454
0.750000456207506
0.749999530590854
0.750000527004677
0.749999620187101
0.750000895517488
0.749998753474929
0.750000590578235
0.749999168201676
0.750000457112003
0.749999679210764
0.750000115015355
0.749999187396706
0.750001467775098
0.749998651025166
0.749999576876568
0.750000484922511
0.749999700822983
0.74999998204504
0.749999410021124
0.749999879333543
0.749999319945302
0.749999802397653
0.749999376896893
0.74999929865724
0.749999798815058
0.749999678550868
0.749999787866348
0.74999956166362
0.749999441710602
0.749998842406869
0.75000121079703
0.749998796883244
0.74999975611561
0.749999624944579
0.749999578786121
0.7499990099306
0.749999318979985
0.749999710364123
0.749999581213226
0.749999009905185
0.750000324873257
0.749999626841216
0.749999355783645
0.750000157869916
0.74999885825162
0.74999982133103
0.750000127663261
0.749999190201815
0.749999883312096
0.749999605204689
0.750000439005071
0.749999261628354
0.750000299421366
0.74999984263093
0.750000133046073
0.749999662504819
0.750000346945566
0.749999779264333
0.750000485022711
0.749999826383919
0.750000016565729
0.75000009528363
0.750000471709602
0.750000309432043
0.750000264947474
0.749999917903794
0.750000856457144
0.749999874758234
0.750000428763689
0.749999602113485
0.750001021126429
0.749999882772798
0.750001290674715
0.74999974096968
0.750000338006149
0.750000420634301
0.750000239838076
0.750000320833739
0.750000351520837
0.750000390288254
0.750000056223475
0.750000487632245
0.750000568546697
0.749999880510175
0.750000275193423
0.749999970432044
0.750000448579229
0.749999621520071
0.75000078414586
0.749999809479026
0.750001083467233
0.749999299531678
0.750000275168213
0.749999728233558
0.750000571333214
0.75000012066118
0.749999339906102
0.75000046042937
0.749999746601171
0.750000225114762
0.749999696565707
0.750000543585141
0.749999820873466
0.750000070979097
0.749999680277928
0.750000298752641
0.750000002231066
0.750000368077546
0.749999426819931
0.750000384930168
0.749999773500537
0.750000475923982
0.749999955160223
0.750000304371649
0.749999719656335
0.749999995242887
0.750000531932145
0.75000024883297
0.750000155980414
0.749999976735026
0.750000826718227
0.749999846378503
0.750000332841247
0.750000111212278
0.750000595042202
0.750000121986225
0.750000501192325
0.75000051714298
0.750000716726007
0.749999706089117
0.750001173045287
0.74999980236051
0.750000474544808
0.750000095717151
0.750000996016278
0.750000380264911
0.750000665536237
0.749999966940481
0.750001000751791
0.750000320986957
0.750000653415064
0.749999986418214
0.750000322538072
0.750000495297809
0.750000702994726
0.750000145002496
0.750000533350322
0.75000033606318
0.749999685995282
0.750001304652136
0.750000311605899
0.749999862048766
0.750000194754496
0.749999258076771
0.750001401643521
0.74999988155331
0.750000169037215
0.749999753376719
0.750000723772436
0.749999931054899
0.749999722200563
0.750000169581621
0.749999480893433
0.750000483678454
0.749999407450885
0.750000354286878
0.749999284344005
0.749999744169478
0.750000057691194
0.749999895198254
0.749999367804089
0.749999967827967
0.749999212017258
0.749999752424898
0.749999382308059
0.750000183585604
0.749998860069046
0.749999464310116
0.749999093942847
0.750000050258638
0.749999407738852
0.749998806698441
0.750000036850079
0.749998694148195
0.750000123105688
0.749998828919806
0.749999154996359
0.749999398019072
0.749999400046001
0.749998960681335
0.7499995485694
0.749999134753906
0.749999832996821
0.749998242683318
0.750000107004723
0.74999906294985
0.749999217933843
0.749999156303694
0.750000096038246
0.749997529373603
0.749999925072774
0.749999246819996
0.749999540613938
0.749999954859642
0.749999192045576
0.74999950133134
0.749999660104549
0.750000110130761
0.749999393004368
0.74999943840918
0.75000040331303
0.749999244330977
0.750000030662964
0.749999860716156
0.750000230249042
0.749999520104676
0.750000729246409
0.749999777408707
0.750000575351592
0.749999909789006
0.749999809417627
0.750000696044748
0.750000238136291
0.750000522937059
0.750000085416689
0.750000833738211
0.750000261624915
0.750000619786042
0.750000213341384
0.750001068372317
0.750000006066217
0.750000945235681
0.750000846668476
0.75000050557974
0.750001026942412
0.750000486660347
0.750000693598141
0.750000406161143
0.750001144713758
0.750000721940495
0.750000568693833
0.750000628904123
0.750001161186217
0.75000036623872
0.750001236081606
0.750000698945815
0.750001339835507
0.749999711693734
0.750001085582147
0.750001002745771
0.750000318319314
0.750001241158582
0.750000586598465
0.750001107415904
0.75000050070442
0.750001325517645
0.750000380600414
0.750000601957049
0.750000781523237
0.750000423024101
0.750001475989135
0.75000024654159
0.750001082615633
0.750000107465428
0.750001535783269
0.75000030045433
0.750000459663827
0.750000247480403
0.750001512096269
0.749999895884476
0.750001284367826
0.750000322746079
0.750000597542166
0.750000850327291
0.750000273637923
0.749999957268509
0.750001267786974
0.749999772497458
0.750000650630562
0.750001076892277
0.750000210987742
0.750000108852831
0.750000447444029
0.750001271011562
0.749999702253488
0.750000540367628
0.750000173870294
0.750000131566068
0.750000863997031
0.750000083369882
0.750000479005917
0.750000210741819
0.750000558608262
0.750000076008578
0.750000575388466
0.750001420469222
0.749999567114087
0.750000099495351
0.750000454821134
0.750000629574799
0.750000415800313
0.750000139758028
0.750000259013423
0.750000382453606
0.750000631629904
0.750001135630697
0.749999766499407
0.750000320646893
0.750000257338968
0.750000589047051
0.750000289562015
0.75000098941436
0.749999983052027
0.75000086673107
0.750000285896888
0.750001083454576
0.749999085322342
0.750001274424745
0.750000312641799
0.750000521673283