/*--------------------------------*- C++ -*----------------------------------*\
| =========                 |                                                 |
| \\      /  F ield         | foam-extend: Open Source CFD                    |
|  \\    /   O peration     | Version:     4.0                                |
|   \\  /    A nd           | Web:         http://www.foam-extend.org         |
|    \\/     M anipulation  |                                                 |
\*---------------------------------------------------------------------------*/
FoamFile
{
    version     2.0;
    format      ascii;
    class       volScalarField;
    location    "10";
    object      p;
}
// * * * * * * * * * * * * * * * * * * * * * * * * * * * * * * * * * * * * * //

dimensions      [1 -1 -2 0 0 0 0];

internalField   nonuniform List<scalar> 
160000
(
0.749997735012324
0.749997852769359
0.749997985688812
0.749998108813462
0.749998206006896
0.749998270067971
0.749998289436771
0.749998246961508
0.749998180015293
0.749998056417744
0.749997924907677
0.749997785102898
0.749997657164461
0.749997550732173
0.749997497825103
0.749997493307121
0.749997535853046
0.749997620391769
0.749997738889802
0.749997860926316
0.749997992416241
0.749998103255503
0.749998201278548
0.749998257179509
0.749998288722124
0.749998291163392
0.749998268750691
0.74999823181634
0.749998184754302
0.749998123506896
0.74999806756175
0.749998008093121
0.749997955812077
0.749997909844771
0.749997874579362
0.749997854263426
0.749997836787869
0.749997838312729
0.749997845565717
0.749997866002423
0.74999789233419
0.749997937486844
0.749997982729365
0.749998042453964
0.749998090881496
0.749998139970083
0.749998174862081
0.749998183157157
0.749998187698308
0.749998152794585
0.749998110213988
0.749998033162081
0.749997936039478
0.749997822065931
0.749997704218969
0.749997588141887
0.749997480123807
0.749997399762375
0.749997362069029
0.749997336166852
0.749997348536555
0.74999739053144
0.749997440833351
0.74999750058739
0.749997566973073
0.749997647431521
0.74999771768251
0.749997776399565
0.749997857193275
0.749997927179603
0.749998003530879
0.749998116554786
0.749998223907094
0.749998353534526
0.74999847721651
0.749998593528358
0.749998672378843
0.749998719136566
0.749998706875974
0.749998637822556
0.749998517781955
0.74999833348032
0.749998124524954
0.749997898300284
0.749997703994628
0.749997567908678
0.749997532219314
0.749997602284597
0.749997792125347
0.749998062627208
0.749998404426396
0.749998764161704
0.749999107081246
0.749999378811779
0.749999562701056
0.749999620166321
0.749999555490315
0.749999369828828
0.74999909779769
0.749998758491298
0.749998385445954
0.749998010784651
0.749997684964932
0.749997373238416
0.749997146726523
0.749996960258115
0.749996830664404
0.749996754937246
0.74999673045824
0.749996743026645
0.749996798006599
0.749996872828696
0.749996971993971
0.749997080468547
0.749997214871176
0.749997341467735
0.749997486424955
0.749997623168846
0.749997734664782
0.749997840158364
0.749997918722639
0.749997985066777
0.749998033212524
0.749998085492256
0.74999814733549
0.749998202247595
0.749998285148073
0.749998362104813
0.749998430442145
0.749998478888675
0.749998494494504
0.749998456909755
0.74999837598181
0.749998238906487
0.749998050964504
0.749997842322497
0.749997623156714
0.749997415307452
0.749997257638976
0.749997156059198
0.749997127041233
0.749997173585915
0.749997296558597
0.74999747484313
0.749997693993582
0.749997930895031
0.749998172602548
0.749998392329757
0.749998582599574
0.749998740288897
0.749998836183055
0.749998891044044
0.749998883258604
0.749998836963352
0.749998727502764
0.749998573166828
0.749998366460043
0.749998115298841
0.749997841627136
0.749997570913665
0.749997328838823
0.749997135796488
0.749997013233918
0.749996961525132
0.749996980347369
0.749997065922766
0.749997198026274
0.749997354146004
0.749997527702023
0.749997686508087
0.74999782356587
0.749997941760475
0.749998016690611
0.749998069931138
0.749998097348566
0.749998100080963
0.749998115423523
0.749998105842232
0.749998110777562
0.749998112738149
0.749998105346365
0.749998089447159
0.749998070011253
0.749998052550459
0.749998025870529
0.74999801505787
0.749998022384359
0.749998035358134
0.749998088728041
0.749998140037875
0.749998209850962
0.749998280603893
0.749998331826798
0.749998356391438
0.749998364190762
0.749998326062362
0.749998271415549
0.749998191702852
0.749998116441274
0.749998047442272
0.749997998267515
0.749997973739317
0.749997970870798
0.749997974185377
0.749997985486391
0.749997977525789
0.749997932176734
0.749997848468879
0.749997713985701
0.749997531154044
0.749997307766204
0.749997075186724
0.749996830293294
0.749996612608941
0.749996442052508
0.749996334958225
0.749996321941929
0.749996392065369
0.749996564570229
0.749996824860268
0.749997157969869
0.749997543043544
0.749997971460184
0.749998404427992
0.749998830657862
0.749999193279995
0.749999495310751
0.749999685471652
0.749999756011505
0.749999703898497
0.749999539336779
0.749999265838841
0.74999894624593
0.749998583043724
0.749998234000311
0.749997935911705
0.74999769163924
0.749997539675721
0.749997467466005
0.749997483204152
0.74999756140786
0.749997682308558
0.749997831946097
0.749997977521613
0.749998106109653
0.749998197925395
0.749998263852225
0.749998285944827
0.749998272877228
0.749998236685138
0.749998175198969
0.749998103720484
0.749998005479671
0.7499979263471
0.749997834778228
0.749997769450343
0.749997724826824
0.749997721050213
0.74999776085083
0.749997844668445
0.749997970343624
0.7499981240486
0.74999828511467
0.749998434340386
0.749998538468673
0.749998591206685
0.74999859005896
0.749998511306461
0.74999840070766
0.74999823234175
0.749998064976999
0.749997893717953
0.749997774954399
0.749997728490564
0.749997761613109
0.749997896038841
0.749998111563715
0.749998389526599
0.749998714595506
0.749999039404962
0.749999355561514
0.74999961548342
0.749999802393116
0.749999906460821
0.749999920600172
0.749999839647179
0.749999688923165
0.749999481396946
0.749999235529772
0.749998987822036
0.749998750652761
0.749998540896208
0.74999838247756
0.749998255636185
0.749998176358646
0.749998115050009
0.74999807472165
0.749998014776443
0.749997949908003
0.749997868972018
0.749997761687461
0.74999765952426
0.749997552975696
0.74999745694579
0.749997396748511
0.749997374793954
0.749997396965492
0.749997464085432
0.749997576131269
0.749997701500151
0.749997836474641
0.749997964265615
0.749998059992147
0.749998125754181
0.749998138833783
0.749998113434899
0.749998049763378
0.74999796219772
0.749997858941824
0.749997764786835
0.749997689003806
0.749997642655023
0.749997632936719
0.74999766654532
0.749997737565592
0.749997831528953
0.749997939770557
0.749998057790275
0.74999814936322
0.749998241066225
0.749998300407854
0.749998342181068
0.749998365996301
0.749998361760447
0.749998337405364
0.749998302088417
0.749998246098568
0.749998190399313
0.749998137456774
0.74999809077795
0.749998076740371
0.749998078577431
0.749998117710967
0.749998183476873
0.749998281448917
0.749998390270433
0.749998506030384
0.749998622689448
0.749998710774862
0.749998770686164
0.749998790465312
0.749998769664892
0.749998713271383
0.749998625279944
0.749998515421907
0.749998403042634
0.749998289907106
0.749998189230851
0.749998126443024
0.749998076355179
0.7499980890157
0.749998114591034
0.749998193015801
0.749998290151676
0.749998415066393
0.749998551961401
0.749998679866656
0.749998794296378
0.749998863318385
0.74999887806712
0.749998821319271
0.749998696618718
0.749998493992846
0.749998237847775
0.749997930736963
0.749997600404312
0.749997282711305
0.749996996896229
0.749996781256843
0.749996631647318
0.749996600781722
0.749996636964593
0.749996763975108
0.749996958621371
0.749997190118308
0.749997423276152
0.749997662920273
0.749997849527139
0.749998002041247
0.749998090700639
0.749998121544835
0.749998088522061
0.749998010163848
0.749997901563218
0.749997779092805
0.749997677478774
0.749997594273308
0.749997557802759
0.749997576332679
0.749997626200877
0.749997827897123
0.749998029393939
0.74999824540633
0.749998433730446
0.749998568355203
0.749998647327317
0.749998658016695
0.749998581812086
0.749998490101358
0.749998308811669
0.749998127476239
0.749997945300068
0.749997788034628
0.749997661987873
0.749997611552515
0.74999760329417
0.749997628801626
0.749997703403949
0.749997824823859
0.749997930617351
0.749998037128121
0.749998107847034
0.749998180534667
0.749998207821967
0.749998228121997
0.749998225051947
0.749998205306556
0.749998193409809
0.749998191531977
0.749998180007632
0.749998187369611
0.749998187318414
0.749998193168941
0.749998197355827
0.749998200570008
0.749998203735201
0.74999818683957
0.749998192264138
0.749998196738294
0.749998206736604
0.749998212092504
0.749998244270347
0.749998266166851
0.74999830566425
0.749998316609163
0.749998337053326
0.749998346660467
0.74999832393818
0.749998312842768
0.749998244836581
0.74999818838358
0.749998100361295
0.749998009647659
0.749997920468417
0.749997839679333
0.74999776007729
0.749997687720503
0.749997659585713
0.749997672202858
0.749997640615588
0.749997640746603
0.749997679607817
0.7499977005316
0.749997698926893
0.749997688754848
0.749997699052469
0.749997679643877
0.74999764199883
0.749997667133091
0.749997676833174
0.74999770311599
0.749997809025159
0.749997902422648
0.749998042047732
0.749998188242539
0.749998343885931
0.74999845391769
0.749998535404483
0.749998541121622
0.749998480666813
0.749998363959823
0.749998160808022
0.749997948188292
0.749997733063735
0.749997573545439
0.749997477094759
0.74999748784612
0.749997601531752
0.749997849104617
0.749998169304492
0.749998567584998
0.749998967710326
0.749999334251471
0.74999960699781
0.749999795587835
0.749999840089339
0.749999751597612
0.749999534594344
0.749999243422823
0.74999888704362
0.749998500329951
0.7499981271221
0.749997836041547
0.749997536096952
0.749997367784848
0.749997240237964
0.749997180383476
0.749997178961571
0.749997215369919
0.74999725665142
0.749997321530943
0.749997380221891
0.749997449172801
0.749997500405455
0.749997565843666
0.749997587007077
0.749997640280834
0.749997686806505
0.749997705492782
0.749997756485227
0.74999780213582
0.749997860461194
0.749997918228806
0.749998014979692
0.749998141606185
0.749998247985735
0.74999840415701
0.749998545318365
0.7499986688223
0.749998767600232
0.749998823013339
0.749998799328245
0.749998721723631
0.749998564003395
0.749998334963067
0.749998088691584
0.749997819535854
0.749997549536879
0.749997344385715
0.749997203056173
0.749997147327629
0.749997181588656
0.749997310581491
0.749997499495464
0.749997736375743
0.749997996125174
0.749998261889803
0.749998481434332
0.749998652626655
0.749998783880352
0.749998827961141
0.749998837286903
0.74999877367304
0.749998680646182
0.749998517296037
0.749998337136823
0.749998137395171
0.749997927668612
0.749997722214979
0.749997534098514
0.74999737162592
0.74999724408094
0.749997176470969
0.749997158590248
0.749997186398868
0.749997260976382
0.749997356223962
0.749997454279248
0.749997569358771
0.749997654845424
0.749997714639974
0.749997767874564
0.749997778327389
0.749997795590379
0.749997813689462
0.749997828885452
0.749997899161654
0.74999793747337
0.749998026123382
0.749998129740089
0.749998221648908
0.749998300039422
0.749998375872627
0.749998439602196
0.749998450796815
0.749998462482138
0.749998476413906
0.749998460798964
0.749998477074253
0.749998447224481
0.749998438074505
0.749998435131399
0.749998399156163
0.749998330388
0.749998264902998
0.749998150216463
0.74999803949567
0.749997905940985
0.74999779142074
0.749997684496449
0.749997604072669
0.749997560415395
0.74999754500134
0.749997532448527
0.749997541966032
0.74999753159809
0.749997484262348
0.749997419444244
0.749997315244394
0.749997168803962
0.74999699393615
0.749996841110007
0.749996677868202
0.749996558311611
0.749996499801669
0.749996501066807
0.749996587113593
0.749996717685877
0.749996931280648
0.74999720528344
0.749997514995154
0.74999784196071
0.749998198919496
0.749998539272082
0.749998866235162
0.749999110523213
0.74999932693031
0.74999944414162
0.749999458770281
0.749999372311917
0.749999191999073
0.749998901216674
0.74999858768229
0.749998205794317
0.74999783332286
0.749997515404132
0.749997229978235
0.749997044571209
0.74999693483501
0.749996919635359
0.749996962106722
0.749997049479038
0.749997187949033
0.749997331061139
0.749997467911117
0.749997583131302
0.749997711299153
0.749997805823095
0.749997874066346
0.74999793826859
0.74999798597205
0.749998025101808
0.749998011983113
0.749998027817894
0.749997990347623
0.749997958671329
0.749997913750195
0.749997885251986
0.749997871458277
0.749997873268197
0.749997904307689
0.749997962411993
0.749998033167721
0.749998106468165
0.749998150258139
0.74999818320419
0.749998198243756
0.74999812959714
0.749998054892841
0.749997916885286
0.749997813963656
0.749997699221151
0.749997635505775
0.749997621970353
0.749997653704478
0.749997783647659
0.749997984579515
0.749998233385982
0.749998528187856
0.749998813472716
0.749999113439647
0.749999360381073
0.749999543072644
0.749999664066859
0.749999710319638
0.749999662890874
0.749999559530002
0.749999400908105
0.749999193256474
0.74999897879421
0.749998753259888
0.74999852977437
0.74999834515047
0.749998159390838
0.749998017155584
0.749997883322861
0.749997783116909
0.749997661595974
0.749997572107539
0.749997495226132
0.749997396064714
0.749997331135414
0.749997274240446
0.749997244849646
0.749997275640805
0.749997338505143
0.749997426120141
0.749997552598712
0.74999773024728
0.749997894759313
0.749998048670523
0.749998180222769
0.749998260839917
0.749998306910919
0.749998277024249
0.749998204332609
0.74999809096931
0.749997955454598
0.749997802515951
0.749997670089893
0.749997561047469
0.749997482902732
0.74999744469316
0.749997458353309
0.749997507126221
0.749997569102567
0.749997653568625
0.749997769086035
0.74999785389936
0.749997963057387
0.749998034645598
0.749998096841936
0.749998147922465
0.749998160412979
0.749998151069237
0.749998134543101
0.749998077620046
0.749998011310645
0.749997933034963
0.749997843293341
0.749997787031524
0.749997721264645
0.749997693545257
0.749997699061314
0.749997756527455
0.749997833126247
0.749997943345709
0.749998095098441
0.749998237839646
0.749998379122699
0.749998504084599
0.749998606194518
0.749998675730856
0.749998699286619
0.749998685615174
0.749998663349424
0.749998616520283
0.749998557917158
0.749998530066206
0.749998484278797
0.749998521495181
0.749998543570813
0.749998635652437
0.749998742052318
0.749998885462448
0.749999038889755
0.749999171792635
0.749999295987344
0.749999366300415
0.749999379026647
0.749999311153619
0.749999175814218
0.749998952078647
0.749998678786297
0.749998345292027
0.74999799146812
0.74999766371045
0.749997359220719
0.749997112917899
0.74999690623956
0.749996843069436
0.749996812119389
0.749996868640157
0.749996993166463
0.749997143380811
0.749997289915825
0.749997476560493
0.749997597940957
0.7499976991359
0.74999773623827
0.749997731507556
0.749997679201609
0.749997605864684
0.749997516523124
0.749997420345063
0.749997368395887
0.749997341432929
0.749997384150947
0.749997495315534
0.749997621235184
0.749997810325653
0.74999804831349
0.74999829371817
0.749998502100396
0.749998648686371
0.749998729144077
0.749998733445427
0.74999864712055
0.749998540379133
0.749998345056069
0.749998151656981
0.74999796025078
0.749997799253091
0.749997672314252
0.749997621307132
0.749997613186592
0.749997635933155
0.749997704146951
0.749997815599613
0.749997907709979
0.749997998569648
0.749998053024123
0.749998113310261
0.749998132573942
0.749998152314908
0.749998157060754
0.749998154749255
0.749998169184355
0.749998201020572
0.749998229419033
0.749998280070391
0.749998322947199
0.749998369250982
0.749998409097663
0.749998440216066
0.74999846360982
0.749998458953932
0.749998468848972
0.749998472033064
0.749998474372026
0.749998468174907
0.749998486973914
0.74999848980737
0.74999851029456
0.749998500557697
0.749998500122881
0.74999849087195
0.749998451536627
0.749998426974651
0.749998351628012
0.749998292868731
0.749998208868117
0.749998128436521
0.749998055516065
0.749997992963452
0.749997932313859
0.749997876241267
0.74999785899095
0.749997876567059
0.749997841812276
0.749997830006591
0.749997849223605
0.74999784382112
0.749997809693825
0.749997761614558
0.749997729221598
0.749997665268258
0.749997582205792
0.749997563392519
0.749997532829829
0.74999752366091
0.749997599176568
0.749997669121651
0.749997793372436
0.749997930214591
0.749998085747204
0.749998201963595
0.749998296226548
0.749998321126552
0.749998285998039
0.749998200828254
0.749998034947329
0.749997863324425
0.74999769573354
0.749997581355675
0.749997523366528
0.749997563151184
0.749997691112829
0.749997936811168
0.749998239216586
0.74999860684869
0.749998965379312
0.749999286305033
0.749999514016567
0.749999667188114
0.749999687023376
0.749999590138855
0.749999381263337
0.749999115545839
0.749998798789079
0.749998463301209
0.74999814924228
0.749997920633867
0.74999768440401
0.7499975796846
0.749997508653221
0.749997500475445
0.749997540674381
0.749997605966382
0.749997663268733
0.749997727780123
0.749997770057384
0.749997809065704
0.749997813842152
0.749997823829269
0.749997779432964
0.749997765064479
0.749997746539744
0.749997708516696
0.749997717734044
0.749997737606537
0.749997788203765
0.749997858527826
0.749997981433045
0.749998145346837
0.74999829486051
0.749998494776195
0.749998676468386
0.749998833932233
0.749998956754487
0.749999028047232
0.74999901133541
0.749998931227687
0.749998764453768
0.749998521159269
0.749998256689579
0.749997966684662
0.749997673973169
0.749997445716356
0.749997280843812
0.749997203568502
0.749997216218931
0.749997324542912
0.749997493576983
0.749997710773623
0.749997948731234
0.749998190797135
0.749998383372444
0.749998524896963
0.749998626529081
0.749998642817702
0.749998632159947
0.749998557671348
0.749998467363602
0.749998325421803
0.749998184092536
0.749998038136477
0.749997902172484
0.749997776398802
0.749997666926599
0.749997575948894
0.749997504704614
0.749997472160571
0.74999746645226
0.749997482158095
0.749997522997083
0.749997566862949
0.749997601373863
0.749997647039575
0.749997664007711
0.749997661097453
0.749997660303837
0.74999763364122
0.74999762801257
0.749997640936576
0.749997668927467
0.749997766404811
0.749997843997218
0.74999798376908
0.749998143968718
0.749998296794049
0.74999843455468
0.74999856459993
0.749998671360263
0.749998710962722
0.749998735471647
0.749998742971227
0.74999870172005
0.749998674891212
0.749998588246733
0.749998515014899
0.749998443929392
0.749998344627187
0.749998221288016
0.74999811351073
0.749997972015534
0.749997849456625
0.749997714238471
0.749997606146493
0.749997507988091
0.749997433642974
0.749997390401159
0.749997368391025
0.749997342570779
0.749997337368817
0.749997314508679
0.749997263619279
0.749997211495801
0.749997139627849
0.749997048538644
0.749996950589389
0.74999689343503
0.749996837646342
0.749996828479266
0.749996875426169
0.749996963451706
0.749997107389467
0.749997263829754
0.749997463790736
0.749997684027134
0.749997903049463
0.749998109366936
0.749998324660781
0.749998512572914
0.749998688791348
0.749998796663037
0.749998901977895
0.749998939771185
0.749998912477368
0.749998820097344
0.749998665895287
0.749998423641008
0.749998173190748
0.749997856500179
0.749997543111757
0.749997270671867
0.749997011446091
0.749996835235846
0.749996716385713
0.749996677180174
0.74999668787043
0.749996737922461
0.749996840493498
0.74999695274615
0.749997067600575
0.749997171253988
0.74999730113617
0.74999740962875
0.749997505339894
0.749997609075761
0.749997707329225
0.749997804833332
0.749997854347115
0.749997933618397
0.749997952061583
0.749997967161971
0.749997952974901
0.749997935805566
0.749997913520306
0.749997887388071
0.749997874787113
0.749997879528486
0.749997894299209
0.749997917667143
0.749997924733881
0.749997938902549
0.749997956198845
0.749997909518156
0.749997873758309
0.749997784623775
0.749997737601482
0.749997673814203
0.749997647552167
0.749997651350573
0.749997675462404
0.749997772050667
0.749997918571037
0.749998093922963
0.749998306042627
0.749998506367247
0.749998730817482
0.749998917884386
0.749999062257218
0.749999169631823
0.749999226841319
0.749999212252966
0.749999156491991
0.749999053201827
0.749998903144699
0.749998738021861
0.749998548839533
0.749998344395259
0.749998161474923
0.749997962285063
0.74999779688173
0.749997635090963
0.749997511119123
0.749997376100828
0.749997286543355
0.749997226657171
0.74999715976922
0.749997139191571
0.749997134819994
0.749997160926364
0.749997243707847
0.74999735009324
0.749997469069427
0.749997611992217
0.749997793336423
0.749997949055651
0.74999808519653
0.749998193590857
0.749998249285562
0.749998273194564
0.749998225296617
0.749998141887259
0.749998024606484
0.749997892403623
0.74999774828581
0.749997628294014
0.749997532167671
0.749997465196235
0.749997433910842
0.749997448383469
0.749997491206135
0.749997541584749
0.749997610240588
0.749997706043537
0.749997775326994
0.749997871007882
0.749997934743674
0.7499979956443
0.749998052325342
0.749998076967291
0.749998084251785
0.749998084802983
0.749998042151878
0.749997983217633
0.749997901571926
0.74999779355074
0.749997706239432
0.749997595975379
0.749997514048854
0.749997459996236
0.749997459959791
0.749997487975079
0.749997563506217
0.749997698286549
0.749997845974345
0.749998012374869
0.749998180951598
0.749998341240628
0.74999847628861
0.749998567562134
0.749998618389332
0.749998653121916
0.749998653628147
0.749998630210877
0.749998628444543
0.749998598829644
0.7499986464263
0.749998673464257
0.749998770233674
0.749998878981622
0.749999023617492
0.749999178067876
0.749999313764675
0.749999441127007
0.749999515509296
0.749999537768488
0.749999483774707
0.749999370068479
0.749999174923458
0.749998936441588
0.749998642321434
0.749998330944887
0.749998043341686
0.749997770552653
0.74999754329598
0.74999733734621
0.749997257834246
0.749997190351026
0.749997190234228
0.749997244274537
0.749997313983638
0.74999737504065
0.749997477665531
0.749997520728899
0.749997554080192
0.749997535420888
0.749997490108226
0.749997413754065
0.749997331662223
0.749997247838504
0.749997169816299
0.749997145760286
0.749997154342958
0.749997238041714
0.749997392940805
0.749997562435085
0.749997737533783
0.749998008730049
0.749998281516885
0.749998509588947
0.749998670356749
0.749998756259706
0.749998759244486
0.749998669527665
0.749998554370307
0.749998353175337
0.749998155901096
0.749997962988987
0.749997804827841
0.749997681892742
0.749997633682977
0.749997629178085
0.749997652005877
0.749997715161541
0.749997816153637
0.749997893524727
0.749997967960904
0.749998005854946
0.749998053210867
0.749998063313253
0.749998081061423
0.749998092114521
0.749998106212685
0.749998145433638
0.749998208573733
0.749998274351748
0.749998365807349
0.749998449461554
0.749998534669294
0.749998609676078
0.749998669352469
0.74999871517407
0.749998725789654
0.749998742328442
0.749998746328597
0.749998742216596
0.749998725122683
0.749998730242817
0.749998712739349
0.749998713211662
0.749998682203126
0.749998660833849
0.749998633676845
0.749998580431864
0.749998546906525
0.749998471470508
0.749998418181593
0.749998345893762
0.749998281422678
0.749998228040458
0.749998183698322
0.749998139212806
0.749998094016364
0.749998080415058
0.749998093382096
0.74999804902932
0.749998020258624
0.749998016779831
0.749997984424033
0.7499979207003
0.749997840530811
0.749997772533301
0.749997671587862
0.749997549369847
0.749997490314175
0.749997420808953
0.749997374902063
0.749997415863589
0.749997456749408
0.74999755852637
0.749997677595809
0.749997824394627
0.749997938594718
0.749998038436093
0.749998076988592
0.749998063586708
0.749998008834656
0.749997881077711
0.74999775159638
0.749997633823516
0.749997566338012
0.749997549353202
0.749997621865673
0.749997767734113
0.749998014596726
0.749998300373382
0.74999863555176
0.749998948689376
0.749999217946836
0.749999391878238
0.749999499407244
0.74999948323811
0.749999367209907
0.749999158216967
0.74999891215115
0.749998633332205
0.749998352657103
0.749998105892501
0.749997951596379
0.749997795065366
0.749997771803883
0.749997774649771
0.7499978343259
0.74999793014562
0.749998035979242
0.749998119370518
0.749998190462355
0.749998219914607
0.749998229359839
0.749998185825429
0.749998135737749
0.749998020476641
0.749997932216058
0.749997841369059
0.749997738616897
0.749997697743388
0.749997683812986
0.749997719815086
0.749997798457273
0.749997944946951
0.74999814585581
0.749998340771336
0.749998588053913
0.749998814630216
0.749999009822429
0.749999159074161
0.74999924783859
0.749999237610828
0.749999153741527
0.749998976705235
0.749998718016341
0.749998435151284
0.749998125866054
0.749997814264095
0.749997568345547
0.74999738572586
0.749997292693275
0.749997287895204
0.749997377391411
0.749997525544207
0.749997718477097
0.749997926241143
0.749998133567715
0.749998286962959
0.749998386870724
0.749998448217973
0.749998428056376
0.749998391645347
0.749998304157318
0.749998218528375
0.749998104736307
0.749998011225366
0.749997928035096
0.749997875694283
0.749997837875745
0.749997814276641
0.749997801497672
0.749997792597626
0.749997800010389
0.749997810134439
0.749997816230556
0.749997825111889
0.749997818292516
0.749997789255011
0.749997764495488
0.749997711409553
0.749997643959209
0.749997586403946
0.749997520152623
0.749997487218396
0.749997489691859
0.749997524534212
0.749997642359622
0.749997752343311
0.749997936249763
0.74999814568568
0.749998352493594
0.749998542730839
0.749998720897582
0.749998864917207
0.749998928230939
0.749998962648544
0.749998960891415
0.749998892081697
0.749998821465674
0.749998679341465
0.74999854486507
0.749998409792561
0.749998253870017
0.749998085407037
0.749997946592271
0.749997791172661
0.749997670003645
0.749997545744499
0.749997455535099
0.74999737568038
0.749997313864284
0.749997274075122
0.749997245475025
0.749997203982204
0.749997181250509
0.749997144546822
0.749997090673121
0.74999705557564
0.749997024361464
0.749997001498654
0.749996996384298
0.749997052114221
0.749997120260147
0.749997234247728
0.749997393930841
0.749997568336949
0.749997761423031
0.749997928168063
0.749998090876728
0.749998227226252
0.749998322344185
0.749998373210601
0.749998413018038
0.749998418274341
0.749998419254011
0.749998374006952
0.749998358753506
0.749998314945466
0.749998250819545
0.749998163897493
0.749998051455154
0.749997875671323
0.749997707057015
0.749997473665593
0.74999723533131
0.749997020900737
0.749996796114993
0.749996633593276
0.749996506899196
0.749996442955556
0.749996421453827
0.749996433841965
0.749996501341369
0.749996585031186
0.749996681352172
0.749996776883279
0.749996910913631
0.749997034164228
0.749997156719831
0.749997297465364
0.749997442648744
0.749997594219546
0.749997703065074
0.749997843949499
0.749997918518009
0.749997983670421
0.749998006112656
0.749998007998803
0.749997986669123
0.749997942576216
0.749997895766239
0.749997855049752
0.749997819413217
0.749997795726788
0.749997765651361
0.749997757009681
0.749997769744244
0.749997737094819
0.749997731361518
0.749997680882875
0.749997677921341
0.749997652142301
0.749997649817966
0.749997658876447
0.749997661769821
0.749997712262096
0.749997792195964
0.749997882462526
0.749998001600045
0.749998107791543
0.749998249448688
0.749998371793683
0.749998475749742
0.749998570368781
0.74999864196985
0.749998666637687
0.749998666278001
0.749998627147607
0.749998544701301
0.749998438593821
0.749998294979032
0.749998117842098
0.749997943743078
0.749997737485983
0.749997554359035
0.749997369381383
0.749997225903807
0.74999708153638
0.749996995163315
0.749996955600754
0.749996924972054
0.749996952835614
0.749997004433481
0.749997087752861
0.749997222033007
0.749997369794687
0.74999751637941
0.749997669562529
0.749997846179312
0.749997983344949
0.749998091945829
0.749998168244046
0.749998191478899
0.749998187844459
0.749998119269414
0.749998025493385
0.749997907205036
0.749997783422619
0.749997654932396
0.749997555268438
0.749997480434797
0.749997433050354
0.74999741602362
0.749997437811228
0.749997480177022
0.74999752296835
0.749997577536062
0.749997653176676
0.749997705392422
0.749997784199586
0.749997836905856
0.74999789362824
0.74999795432925
0.749997991237564
0.749998017142073
0.749998038186635
0.749998015034526
0.749997970296166
0.749997893193372
0.749997774958121
0.749997664883778
0.749997518092132
0.74999738855112
0.749997279271178
0.749997223499004
0.749997202228429
0.749997239188795
0.749997349468627
0.749997491915287
0.749997670323606
0.749997867050505
0.749998068571394
0.749998251609141
0.749998393824855
0.749998493517451
0.749998570870471
0.74999860754597
0.749998608575099
0.749998626430056
0.749998609395882
0.74999866620812
0.749998699933591
0.7499988057069
0.749998923006301
0.749999076480559
0.749999241106164
0.74999939048123
0.74999953178129
0.749999620230975
0.74999966144177
0.749999629473705
0.749999544757546
0.749999384764306
0.749999186901511
0.749998937601227
0.749998674007205
0.749998431615979
0.749998196388313
0.749997995423244
0.749997798755603
0.749997711739626
0.749997616320748
0.749997570419193
0.749997564115731
0.749997561992445
0.749997544028739
0.749997565661744
0.749997530482835
0.749997492958116
0.749997412597548
0.749997317440675
0.749997204319938
0.749997098178175
0.749997003459512
0.749996927616771
0.749996916156503
0.749996946261149
0.749997058653485
0.749997247380283
0.749997453504482
0.749997610991312
0.749997893059945
0.749998173956274
0.74999840732742
0.749998574171496
0.749998663930742
0.749998670281868
0.749998588464014
0.749998479611684
0.749998290722471
0.749998107359068
0.74999792950779
0.749997787528667
0.749997678344373
0.749997638438944
0.74999764022657
0.749997663165537
0.749997720603809
0.749997810697574
0.749997874580154
0.749997935130973
0.749997961135759
0.749998000713758
0.749998006996063
0.749998026305131
0.749998044491281
0.749998072330563
0.749998129740502
0.749998213848252