/*--------------------------------*- C++ -*----------------------------------*\
| =========                 |                                                 |
| \\      /  F ield         | foam-extend: Open Source CFD                    |
|  \\    /   O peration     | Version:     4.0                                |
|   \\  /    A nd           | Web:         http://www.foam-extend.org         |
|    \\/     M anipulation  |                                                 |
\*---------------------------------------------------------------------------*/
FoamFile
{
    version     2.0;
    format      ascii;
    class       volScalarField;
    location    "10";
    object      rho;
}
// * * * * * * * * * * * * * * * * * * * * * * * * * * * * * * * * * * * * * //

dimensions      [1 -3 0 0 0 0 0];

internalField   nonuniform List<scalar> 
160000
(
1.00090620785621
0.99983372580312
1.00162128494921
1.00008290639361
0.999391599059027
0.999924588165634
1.00042907316307
0.998437344971584
1.00009145765944
1.00000829305082
0.999637189860919
1.00018674889789
0.998945780388009
1.00067675363336
0.999465457011261
0.999637999946575
1.00083463551415
0.999617045833278
0.999670377571052
1.00043488144007
0.999563021157739
1.00110223761271
0.999215566451797
1.00159609270118
0.998751816848644
1.00084711498598
0.999829086806478
1.00007581750864
0.999865699343033
0.999218933129527
1.00122774663263
0.9995219548704
1.00027437199764
1.00006369272011
0.999433263288848
1.000187454325
1.00003965643885
0.999945654377276
0.999661962002277
0.99945836674842
0.999329034017644
1.00073584025331
0.998730921706262
1.00047195475231
0.999340711772125
0.999882701190974
0.999181541164355
1.00131001489556
0.999026308399761
1.00031347278699
0.999042448324111
1.00027536910188
0.998874583967136
1.00061372473015
0.9985768628177
1.00081525915035
0.998241682515385
1.00115762003106
0.998028678630694
1.00106286966038
0.997997349741037
1.00110630808158
0.998081117539368
1.00094794950808
0.998504783789052
1.00061323502624
0.998985615087341
1.00037287462452
0.998765005534267
0.999978242796739
0.99980391507944
0.999854309842009
1.00145231528507
0.998453670743864
1.00178775100926
0.998211000510277
1.00192218056111
0.998245160393132
1.00156370310046
0.998191828594551
1.00183332042401
0.998281299015265
1.0013211537309
0.998818664750111
1.00219384204542
0.999373824396254
0.999545767124539
1.00081239754132
1.00023542812894
0.999417276098007
0.999425703379043
1.00163296867495
0.998346077433296
1.00049011693112
0.998890276921466
1.00046277434649
0.998756966638712
1.0019375516788
0.998677199381316
1.00010171079308
0.999364340596735
1.00086915804392
0.999131437784351
0.999941409874684
1.00007788164302
0.99901505047442
1.00023307094947
0.999895205540211
0.999664365507501
1.00074093232366
0.999626207291915
0.999854953341597
1.0004557234487
0.999449690665784
1.0000679171275
0.999532063522984
1.00007013786741
0.999911785978165
1.00031226352492
1.00020236798736
0.99945229527562
1.00235218056207
0.99934851564002
1.00083603981469
0.999920969611472
1.00016758488315
0.999882374133993
0.999742307378236
0.999694080204
1.00125972235353
0.998663901345454
1.00041510608556
0.997788986710265
1.00052743279804
0.998393549563904
1.00069019743645
1.00027941496411
0.999468272053049
1.00215364526027
0.999409639877766
0.999462614966446
1.00079195488064
1.00062975262591
1.00018151991699
1.00043497113113
0.999825434574961
1.00013944944396
1.00001772787792
0.998275270444769
1.00061555827376
0.999284526493174
1.00006735209248
1.00002018940634
0.998922498466993
1.00065204267702
0.999466552450377
1.00177790492527
0.999434300424812
1.00057385977022
0.999907240779781
1.00051521944673
1.0005691077851
0.999535517969524
0.999833661560557
0.999416578185192
1.00043061880783
0.999384613667753
1.00013145787589
0.997586915917259
1.00002432026202
0.999238751942179
1.00040055714076
1.00076766841187
0.999444973196795
1.00166313893108
0.999825536719821
1.00134567100336
0.998819168961807
1.00136828295486
0.999263431588692
1.00096973234735
0.999834856843419
0.998830038360868
1.00076336275226
0.998612264413421
1.0007999122683
1.00008505615879
1.00009054026918
1.00014712239132
1.00021397966371
1.00031387334239
1.00022962289945
1.00086057814715
0.999125880791036
1.00076918621275
0.999885139191048
1.000265611446
0.999247402792976
1.00055796215732
0.999944410561043
1.00003305282359
0.999608016758336
1.00220548518452
0.999687479935192
0.999950327181238
1.00014166636485
1.00001656663657
1.00066506395249
0.999217489156153
1.00159581685987
0.997816950142864
1.00160312660005
0.999634760191499
1.00037983857385
0.999905201888168
1.00004800199318
1.00029522209493
1.00012745676858
0.999727956149584
1.00159041460702
0.999020511515996
1.00061927018582
0.998036575218881
1.00105548384539
0.998099621659576
1.00031119756046
0.999550111537091
0.999630158118008
1.00185185270412
0.999064345209705
1.00238774522858
0.999833276090406
1.00060187609225
1.00019488917677
0.99974377410256
0.999431839187656
1.00109078226348
0.998971960174343
1.00063370373973
1.00003665666298
1.00013261620525
0.999302309917763
1.0015507824442
0.999541923131615
1.00089624567439
0.99947708510817
1.00142551273831
0.997890595080347
1.00207374278408
0.999006049645811
1.00200885214929
0.999240100221761
1.00074103257426
1.00023549906172
0.999113504738069
1.00057841439443
0.999678576900073
0.999732091786013
1.00100462683198
0.999639705334058
1.00096499624962
1.00050159319261
1.00032627972142
0.99986630885856
1.000297678306
0.999817275469629
1.00000669475054
1.00056980278644
1.00054339332067
0.999288231336137
1.00161518249869
0.998952147616993
1.00110089465416
0.998471526116218
1.00066696943045
0.997903947456874
1.00127686816494
0.999091191068436
1.00048328758749
0.999557303702576
1.00039730227896
0.99898912157669
1.00060097077798
0.999646363080874
1.00071126820179
0.999827150627127
0.999501679909641
1.00040101389516
1.00032255294914
0.999488914332781
1.00140353898745
0.999589662546815
1.00064899585281
0.999931404520428
0.999932642081901
0.999885785526574
1.00019657533384
1.00056400139211
0.999360647463581
1.0002131590779
0.999598628980891
0.999760583277733
1.00058244837641
0.998204370859702
1.00196659271298
0.997423835821854
1.00098366795033
0.999573374297289
1.0014027252843
0.999465715572687
1.00056447194495
0.999492407092155
0.999296954948083
1.00012957089904
0.999261780863712
0.999826878464254
1.00106124410179
0.998457016392096
1.00093518070937
0.999883773500406
0.999451707246266
1.00034073211684
0.9985956085538
1.00043849331185
0.999780137991227
0.999467837610049
0.999572728565575
0.999884059946365
0.999586367727303
1.00162657084235
0.999561891509536
1.00182843724968
0.99777734860865
1.00143801944145
0.999789230711716
1.00065718013186
0.999935731158653
1.00079542417252
0.999273919320711
0.999475946812336
1.00095835611671
0.998736939899481
1.00120195647875
0.999845723098408
0.999867778560064
1.00021385753884
1.000537534225
0.997097550450336
1.00069162023465
0.999884556199369
1.00064159559447
1.00008182373748
0.999595149735231
1.00039117166026
0.999170455174268
1.0006387235935
0.999300147441768
1.00114574939832
1.00000890513248
1.00041266472729
0.999496525719878
1.00011386671432
1.00030417551263
1.00050416332917
0.999897365010083
1.00019029517043
0.999980209105681
1.0001926825695
1.00108554086566
0.999944453930305
0.999956195977361
0.999655585731393
0.99996121892357
1.0001502915326
0.999527892938374
0.99979921242115
1.00128811219319
0.999424738414676
0.999991825229242
0.999631581467891
0.999899269712247
1.00011095935121
1.00017259651943
1.00001286036681
0.999407276151379
1.00052605899539
0.999377644450703
0.999623829174
1.00034109663008
1.00023779082997
0.999703129474095
0.999909137308997
1.00062926471539
0.999792210738419
1.00065093295561
0.999920939856293
1.00135791394711
0.999454459376472
1.00224851755308
0.998739287319667
1.00088952435307
1.00021279478946
1.00074040229975
1.00040753143181
0.999344171414666
0.99967094721048
1.00049334693163
0.997909065412891
1.00014070579267
0.999945969866503
0.999437175851053
1.00026833755825
0.998051607781052
1.00076272808799
0.999438949028488
0.999572212629286
1.00110082849689
0.999600538617649
0.999634139406797
1.00067724928211
0.999431640973676
1.00185962759916
0.999175909300423
1.00102807572181
0.998493420182818
1.00089756729249
0.999837871491872
1.00005444784568
0.999836505600064
0.999186522777871
1.00128035343903
0.999415686638339
1.00033636727115
0.999964143125441
0.999405973868205
1.00063685112419
0.999496409848452
1.00039020923586
0.998623080527714
1.00020691506444
0.99873855315222
1.00134063428441
0.998034964668612
1.00085981144793
0.999195071998127
1.00011768163916
0.999078822914655
1.00152480742308
0.99882778771605
1.00070004782497
0.998348811522644
1.00108589927625
0.998139451637412
1.00131860661646
0.997979280489285
1.00125731457705
0.997912955877646
1.00146363851064
0.997727975658338
1.0014699608736
0.997667781416196
1.00157184602055
0.997674702150819
1.00140144235691
0.998174566091085
1.00080374609249
0.998742563546032
1.00038788943247
0.998752862589575
0.999956355086154
0.999584740341111
0.999873445597455
1.00146094301657
0.998755887123726
1.00166613799955
0.998580844375727
1.0015521637064
0.998904276747897
1.00115118258636
0.998823146285214
1.00129846932972
0.998715714108589
1.00099574505389
0.998899903552668
1.00146109548039
0.999389416357198
0.999436763084183
1.00146252335418
0.999518692637552
1.00028516928115
0.999314515773936
1.00167733546887
0.997681975590144
1.00079896494713
0.998174281029551
1.00053518019591
0.998737129761889
1.00206482889769
0.998677815308743
1.00011824231825
0.999282986582585
1.00157327905386
0.999039598833677
0.999971763389032
1.00007721939077
0.998879142271236
1.00025808116117
0.999776610104793
0.999616828130222
1.00090225510191
0.999376379104303
1.00037213476559
0.999354601013754
1.00043650984568
0.998871691090328
1.00054816023996
0.998885103939094
1.00076523045811
0.999302357843708
1.00082554965825
0.999428290766216
1.00211212665181
0.999345257041521
1.00009189434582
1.00011659116102
0.999285018466432
1.00026864733173
0.999125316089179
0.999737632437364
1.00125293837372
0.998632138488859
1.00040703438399
0.997437618432556
1.0005343952244
0.998161075373175
1.00065099543405
1.00050304894899
0.999459362936167
1.00214800397547
0.999415811378005
0.999439228276452
1.00125332213648
1.00031247429428
1.00107338179967
0.999387889580114
1.0008554421268
1.00004555665115
1.00002133791851
0.998193182890991
1.00063918471319
0.999279370029399
1.00006373568956
1.00002002982465
0.998877619278711
1.0007441766057
0.999430113964362
1.00202394662352
0.999397602493344
1.00066874873563
0.999562483603359
1.00067942737408
1.0005070082401
0.999156013154658
1.00004178136784
0.998769419957721
1.0005626241703
0.999351602390977
1.00013141665116
0.997779088364041
0.999990845967646
0.999367093697897
1.00018797990568
1.0007747500203
0.999503912920753
1.00100551588933
1.00021780839967
0.999979389368839
0.999586916824662
1.00010073191399
0.999972036097335
1.00038912290614
0.999929740998407
0.99849141389681
1.00114931936558
0.998389571984369
1.00079094264904
1.00034799675885
0.999751032023213
1.0013485238058
0.999169505945534
1.00124805937231
0.999898661793339
1.00090454376226
0.999081183002704
1.00061624739607
1.00030735388604
0.999539787515541
1.00010433719048
0.999762166528937
1.00018540551709
0.999744523065909
0.99958074598006
1.00221554509286
0.99965685238755
1.00035984909157
0.999465054088645
1.00031608941398
1.00055582368123
0.99922619538194
1.00153922579447
0.998128339531148
1.0015589500771
0.999628213319086
1.00031719813053
1.00019333915449
0.999891266570301
1.00112525820989
0.999993262347595
0.99970913354328
1.00159799735619
0.999029117339108
1.00061655315023
0.997994766208322
1.00084219117237
0.998104401280229
1.00028943515676
0.999561046815428
0.999584091103679
1.00187516663283
0.999046289371583
1.00243166213329
0.999823029877558
1.00059794813085
1.00037136199906
0.998852810293784
0.999715323479519
0.999800832124336
0.999684826903002
0.999473478909295
1.0005910915794
0.999764443692992
0.999311383142785
1.00067097370638
0.999572728969387
1.00072861009589
0.999479044763906
1.00138644605397
0.998026298154649
1.00193336076829
0.99911270566715
1.00167976898616
0.999255936504803
1.00074855129717
1.0000538543552
0.999067373710875
1.00105129514571
0.999533949716385
1.00009093143088
0.999754760132585
1.00028835369788
1.00067140904877
1.00082945808777
0.999345558664764
1.00075101245329
0.999282081998631
1.00032065528241
0.999464761776816
1.00088947693409
1.00034290554536
0.999324030251163
1.00173992412573
0.998667491738153
1.00135095027142
0.998353346755553
1.00073896139304
0.997517770811145
1.00140609623321
0.99861112813781
1.00106875018993
0.998588372091753
1.00121983664528
0.998194388091965
1.00089196605801
0.999044107128151
1.00096136038142
0.999790430474265
0.999473393785323
1.00059510138302
0.999720091761044
0.999591317494048
1.00013416334694
0.999904161433975
1.00016571461342
0.999931335376753
0.999982570884337
0.998939541901096
1.00039007722521
1.00049214708921
0.99902606790549
1.00037293454994
0.999554284096531
0.999752974214774
1.00062637571003
0.998081244163922
1.00213394198528
0.997237360533147
1.00100728659692
0.999483421026584
1.00194783848457
0.99942377007082
1.00049261112605
0.99971317758439
0.999205020812684
1.0009446758665
0.998944086464835
1.00008286557964
1.00083430237488
0.99921773048427
1.00072525673631
1.00006413612568
0.998733433364914
1.00036694163912
0.998414588939438
1.00047165141205
0.999678664910918
0.999418162704084
1.00031737592493
0.99943980026147
0.999635238832687
1.00078077409828
0.999546780129049
1.00185834968416
0.997691622669725
1.00145445033251
0.999785236767068
1.00039681156894
1.00045172570181
0.999900134372591
0.999428823449593
0.999342667128797
1.00114417402421
0.998305124539314
1.00120076905809
0.999892481994432
0.999550973269193
1.0004275635062
1.00050165709362
0.99759413752676
1.00064394469045
1.00044124876563
1.00019166131954
1.00017638224396
0.999102480869334
1.00059216131655
0.998959141302686
1.00062525425569
1.00020866611527
1.00075182553086
1.00047536731078
0.999632162947632
1.00027345545077
0.999405814004623
1.00111726816435
0.999689012832884
1.00105307313963
0.999933034954909
1.00031222192332
1.00018391290936
0.999917195118426
0.999930725953425
1.00002939498842
0.999308123307812
1.0005785743341
0.999441072558906
0.999879478661462
0.999594415751602
1.00181851016226
0.998743276800878
1.00041252393124
0.999138456996027
0.999925200391978
1.00022078522982
0.999740429101975
1.00022800087217
0.999122154133138
1.00146270075173
0.999337228572716
0.99974374365814
1.00019841596319
0.999895320156315
1.00010764540459
0.999926157855076
1.00051860175749
1.00035133734414
0.999654779835745
1.00041177805204
1.00079954143214
0.999471793518199
1.00198995764786
0.998758819958416
1.00085525467347
1.000519924395
0.999929152606017
1.00064458686742
0.999321498463745
0.999614072408401
1.00053450337753
0.997816718991511
1.00017220938628
0.999947518932345
0.999395275744067
1.00030221973803
0.997727299109807
1.00079827204131
0.999413505846758
0.99953519065156
1.00111403434852
0.999592141684815
0.999612283178456
1.00072666598382
0.999403323326965
1.0021094377911
0.999162144458121
1.00091443928063
0.9983791036898
1.00091669090916
0.999849149694379
0.999993970235866
0.999813348122655
0.999175298945577
1.00120885837491
0.999344041387137
1.00036338224382
0.999855511752926
0.999403641857637
1.00075933571473
0.999133501565888
1.00052581000498
0.99814768701113
1.00069429715127
0.998402753751117
1.00151824078212
0.997867193045389
1.00094612487003
0.999160106202905
1.00021036081243
0.998997094277046
1.00151443167929
0.998718799079085
1.00079701398078
0.998164790309863
1.00138598692018
0.997923493662069
1.00154579393536
0.997842231120765
1.00135843310414
0.997962755897687
1.00139594085081
0.997830948853961
1.0014897200879
0.997740243948737
1.00163146570297
0.997684295032003
1.00145667488957
0.998140269207838
1.00084301171148
0.998716745138814
1.0003066609446
0.998781679124312
0.999928078493456
0.999453943611671
0.999961232300137
1.00140703902513
0.999259356907602
1.00123696015829
0.99914124278722
1.00090078244836
0.999521669743611
1.00054342956226
0.999534964359751
1.00060133187785
0.9993397339242
1.00039776435007
0.99925795063123
1.00072480999696
0.999418979096525
0.999399473475633
1.00162835672967
0.99887826595201
1.00097639391335
0.999135287594867
1.00168026773997
0.997466541622471
1.00083659633865
0.997926862843746
1.00054531474814
0.998761874310707
1.00186781164884
0.998711558970402
1.00012626350705
0.999259748259696
1.0018313432802
0.999019667636166
0.99998795936582
1.00007551743749
0.998863724016484
1.0002700157118
0.999722067016054
0.999595361279589
1.00089981623363
0.999167159155391
1.00074671428335
0.998768944922509
1.00094296476456
0.998347931913617
1.00104542444401
0.99841182490816
1.00116600007455
0.998845541219159
1.00107526404326
0.999414628009946
1.00157874289731
0.999356919875198
0.999786653081387
1.00021226324558
0.998796657307048
1.00038663273892
0.998990958578336
0.999775110437092
1.00123876172374
0.998631346326889
1.00038789615058
0.99746686138901
1.0005244035601
0.99810576658979
1.00060267510462
1.00059207562879
0.999454208726018
1.00188867739566
0.999427442812476
0.999427158116055
1.00148829733161
1.00003635682032
1.00127825665494
0.998824500827499
1.00116163467952
0.999996903910678
1.00000963219511
0.998184939419868
1.00064110350894
0.999281184382383
1.00006003895935
1.00001893083019
0.998864774244604
1.00075005349485
0.99942886769381
1.00193146865489
0.999395822422013
1.00071329520614
0.999425865727094
1.00072399229013
1.00043825580451
0.998993255616854
1.00009641570927
0.998617684621723
1.00059559148298
0.999351098560661
1.0001237118801
0.998357319064178
0.99994440962703
0.999629596925241
1.00005507938949
1.00076279922034
0.999695814778902
1.00051407267813
1.00032729928755
0.999228413417698
1.00011926641577
0.999392246125073
1.00031706896895
0.99999758722077
0.999943659005459
0.998395121916992
1.00127629826197
0.998351535677788
1.00077836466687
1.00039726363825
0.999652757322402
1.00171178029775
0.99864791807005
1.00148298866129
0.999786935096997
1.0009303072774
0.999081503978518
1.00057864760913
1.00036962293512
0.999354920311179
1.0007059347772
0.999409833781431
1.00034686088207
0.999669312892915
0.999566773751306
1.00189047294988
0.999639384053806
1.00055011196103
0.999232649840418
1.00033484015656
1.00050803058585
0.999263292475188
1.00114550306939
0.998672062482592
1.00127218511327
0.999633870363936
1.00025631330709
1.00022705486595
0.999867758751667
1.00147779657172
0.999957737436386
0.999693249280607
1.00159414342024
0.999056045164574
1.00059266988707
0.998254564203337
1.00042425021314
0.998442944044773
1.00024910601844
0.999585636156322
0.999548866707524
1.00186016912396
0.999099398149206
1.00225723978652
0.999827229112137
1.00058639438458
1.00041129162726
0.99847395405312
1.00016701304475
0.999083069675327
1.0002438140076
0.998923758918721
1.00076244346059
0.999658639554839
0.999438533226441
1.00013605405838
0.999609547447693
1.00063625283645
0.999496744293977
1.00120097125503
0.998468306933297
1.00138260091586
0.999341681951004
1.00123619801691
0.999393476661142
1.00073699032972
0.999944249378726
0.99905567560331
1.00115106560871
0.99936878031439
1.00050145071944
0.999073761699342
1.00047910111287
1.00014806432636
1.00090170235379
0.99893050274139
1.00115628700685
0.998890509237922
1.00049898522557
0.999307168967177
1.00097111900544
1.00007085667053
0.999368989437743
1.00174824642825
0.998671182036911
1.00135546070361
0.998510723346188
1.00073897000128
0.997466674977521
1.00147203865628
0.998403806074005
1.0013443713262
0.998255936728653
1.00156876437077
0.997983302132975
1.00095157417501
0.99887350609733
1.00100268838352
0.999791223119047
0.999450383025957
1.00072276697252
0.999612066561908
0.999770541388755
0.999405728424192
1.00008891544755
0.999903240077581
0.999934597054417
1.00000921081102
0.998553221533689
1.00040722243433
1.00045530081424
0.998891678564911
1.00041485602304
0.999527587350484
0.999772586209299
1.00065319729366
0.998035526243274
1.00216598212264
0.997210153968142
1.0010063504827
0.999463807161335
1.00205464977975
0.999406951342793
1.00047946638409
0.999895812107425
0.999183617602731
1.00127729923069
0.9988944283765
1.00017582524174
1.00037665091198
0.999861257761725
1.0002485766884
1.00013369618566
0.998464168317663
1.00038843377651
0.998556812524431
1.00048222307048
0.999667397165232
0.999401570398544
1.00090690887826
0.999352955596871
0.999852672649208
1.0002454851908
0.999565506695115
1.00184410300507
0.997910260165688
1.00143921413297
0.999790902893878
1.00020965938254
1.00054885256695
0.999436916806903
0.999855277844044
0.999219543870593
1.00120584739398
0.998112446857918
1.00119301336381
0.999949451177653
0.999486519414267
1.00045480247682
1.00045698795954
0.998291266954212
1.00058820205197
1.00051858267644
0.999958609715298
1.00016728713275
0.999004748509754
1.0006413364256
0.998889464765626
1.00060509952756
1.00054752708313
1.00029918696406
1.00050030665584
0.999351014715672
1.00075834687273
0.999161796566679
1.00148267753401
0.999238029529218
1.00146292167195
0.999849679289141
1.0004090843495
1.0001702207758
0.999293291019612
0.999911745442754
1.00005910135719
0.999222361773284
1.00076222939097
0.998907033946586
1.00047102931408
0.999313325749243
1.00193727924929
0.99848924471711
1.00050402435454
0.999037845387606
0.999935846983989
1.00024543753866
0.99954268767189
1.00029993037159
0.999068013411824
1.00186940296863
0.999332154510272
0.999804295204803
1.00009129433841
0.999729153371735
1.00045008916038
0.999918934093609
1.00046780550117
1.00041420061076
0.999098869584092
1.00046722817292
1.00044230892751
0.999518440390003
1.00131356093402
0.998969871528608
1.00077683184973
1.0006465182104
0.999060463618393
1.00087291433392
0.999299344190988
0.99956457405808
1.00056769571997
0.997812142187687
1.00019916966887
0.999950861811182
0.999362615937677
1.00032682990325
0.997524285164587
1.00083110229557
0.999387323254598
0.99949789401738
1.00103642224392
0.999589036728463
0.999592342177804
1.00075410137905
0.999382571897784
1.00222703344305
0.999154959125769
1.0008289793177
0.998356211048762
1.0009240960072
0.999862908443108
0.999891115670243
0.999792513221167
0.999178204528972
1.00102078214986
0.999276474659662
1.00038398530404
0.999754098706014
0.99940872046805
1.00080186918888
0.998806778502202
1.00064275247515
0.997798972463768
1.00105242654736
0.998152627495791
1.00163814893019
0.997790727765038
1.00101542113724
0.999140568173129
1.00025854750995
0.998921177085203
1.00142767459671
0.998650553548188
1.0008536440441
0.998086148975288
1.0015621993883
0.99783345793356
1.00166113924513
0.997832746541021
1.00139044577804
0.998169286992245
1.00116987198514
0.998138431332192
1.00137032854322
0.997998818430918
1.00155845619761
0.997864080800079
1.00142813019801
0.998142723469854
1.00086894019739
0.998702347411145
1.00019376361611
0.998977010262757
0.999851039969062
0.999371972349843
1.00014653949615
1.00104708064711
0.999843973848979
1.00058897144835
0.999795062548046
1.00006542504149
1.00007822362638
0.999866321621928
1.00024807845157
0.999762497668812
1.00003879422185
0.999658691549429
0.999831876038506
1.00002836764203
0.999567363064284
0.999366834010635
1.0017029595269
0.998313295598752
1.00149036020176
0.998900846909687
1.00167378909379
0.997321828858345
1.00084246584619
0.997788439638946
1.00054589630854
0.998924116274945
1.00149487242266
0.998838372905043
1.00012797908591
0.999248770103318
1.0019882895176
0.999013580310997
1.00000205086174
1.00007283198527
0.998863334176119
1.00027429020515
0.999672394183448
0.999581329081114
1.00088233974993
0.999009221740995
1.00096338503404
0.9983692923753
1.00131920842211
0.997942227891784
1.00144358138586
0.998081206194044
1.00146625134037
0.998518950534948
1.00118529509237
0.999410453237667
1.00093193873323
0.999378901156385
0.999595571511098
1.00029377124472
0.998376999998408
1.0004397196281
0.998917590161405
0.999776942734039
1.00121844383085
0.998653256976485
1.00035228720103
0.997667178858576
1.00046776149404
0.99811036401616
1.00053388212384
1.00070276649753
0.999452806150012
1.00148151005702
0.999445094525541
0.99941791448368
1.00165824868608
0.999820099273648
1.00140805075472
0.998330418243075
1.00132450095011
0.999954344865268
0.999989531237891
0.998216530593817
1.00062844593423
0.999288865857983
1.00005623353313
1.0000169479026
0.998861217375399
1.0007417289239
0.999451591000304
1.00165428942012
0.999415141340859
1.0007282271058
0.999349037088779
1.00076493546515
1.00034597036698
0.998892420215557
1.0001340901098
0.998549662163506
1.00062255497932
0.999356983951139
1.00009328774829
0.999133944446896
0.999845848040525
0.999885644690694
0.999992140392488
1.00065037566039
0.999935341581268
1.00002665035137
1.00038416245376
0.998658377213483
1.00060465939101
0.998811926214879
1.00049148635588
0.99977111710297
0.999947044945094
0.998308011750363
1.00132513818772
0.998323591267279
1.00076295630431
1.0004480289422
0.999571858275437
1.001891949097
0.998198425116045
1.00161643003093
0.99972138212606
1.00094211585561
0.999084310010725
1.0005038226473
1.00041704066295
0.999269741546293
1.0012334841562
0.99925189757073
1.00042385595335
0.999610932094895
0.999561652207948
1.00137274791069
0.999629164517563
1.00063694391292
0.999107376982864
1.00036414388598
1.00032979588522
0.999459803873013
1.0004532281837
0.999346692979132
1.00059399877116
0.999660259392217
1.00001116847346
1.00026015144466
0.999848646553244
1.00172293430659
0.999935283224326
0.999678768096932
1.00158055721961
0.999102959114015
1.00047457016254
0.998741999933857
1.00000757191851
0.999140785093469
1.00011862997503
0.999765401211042
0.999516507925521
1.00174826401172
0.99920959912498
1.00169666188872
0.99984550668384
1.00056903975563
1.00044751360337
0.998196824107813
1.00059016667595
0.998509874352595
1.00076267438698
0.998482665227293
1.00084386296325
0.999508679882579
0.99987238663374
0.999787634472278
0.999647499647975
1.00046118989623
0.999598118767748
1.0006802224348
0.999125425242025
1.00058808921788
0.999641241199403
1.00065396443635
0.999742412401048
1.00061373484887
0.999836277054033
0.999051352387703
1.00119791964428
0.999180166852888
1.00077168720732
0.998526229174081
1.00062360959776
0.999622672654068
1.00099440753459
0.998663139975517
1.00145709657416
0.998687119957621
1.00057923531428
0.999219857803727
1.00105321252461
0.999864342969239
0.999425050270908
1.00172014184057
0.998777533882684
1.0012727508478
0.99896274778857
1.00073239152771
0.997426718176432
1.00152455339318
0.998301777425817
1.00152655818909
0.998062966443208
1.00182949518481
0.99787633584409
1.00099848973064
0.998799709110788
1.0010307667624
0.999820183561064
0.999427337820419
1.00080801479632
0.999510496494274
0.999873208224926
0.998783150658441
1.00016736927164
0.999730638301835
0.999941180473999
1.0000303587168
0.998286471324478
1.00042996801635
1.00040861857355
0.998803086094538
1.00045528904325
0.999493465832857
0.999850440928736
1.00066987251011
0.998010787253349
1.00217959308986
0.997207539515531
1.00098650372956
0.999451174992418
1.00204215079142
0.999395416809533
1.00046210774308
1.00000577230034
0.999173460245549
1.00149491582895
0.998860206496964
1.0002117017993
0.999990209694491
1.00047753342854
0.999828497094762
1.00017044407727
0.998306294875187
1.00039419388928
0.998888739585526
1.00047671099625
0.999703752424306
0.999382441224812
1.00140258927109
0.999273314996285
1.00016660818081
0.999848295376111
0.999595226578594
1.00172661190256
0.998335549065573
1.00138143126135
0.99980279731366
1.00004272576112
1.00061666604946
0.999066325137373
1.00030784899077
0.998975506976323
1.0012618751425
0.997962218113469
1.00118125286874
0.999988045128033
0.99943796326885
1.00049345814151
1.00038230434757
0.999178432371569
1.00050373387508
1.00058669936544
0.999833331657679
1.00016356843996
0.998960773758836
1.00062910436076
0.998851741777684
1.00054719715899
1.0007934538516
0.999932336082192
1.00055131992236
0.999199386927335
1.00115433107418
0.998990495085482
1.00177749526713
0.998882709085321
1.00167677908358
0.999779991663735
1.00046880034191
1.00015168389322
0.998789700578837
0.999894958335269
1.00008547425022
0.99916472179582
1.00084900292647
0.998489761080513
1.0010814768294
0.998839190297842
1.0020563120032
0.998265244700823
1.0005612140517
0.998984755957245
0.999932355359212
1.00026264715478
0.999419104221507
1.0003574216641
0.999021771029974
1.00213681796373
0.999337505570473
0.999835187154631
1.00004150250702
0.999665988558147
1.00071112928905
0.999914332089853
1.00040447625221
1.00047304334244
0.998615347614315
1.000528140179
1.00001914694236
0.99969791312066
1.00041778755885
0.999480329563567
1.00041367088828
1.00070347908467
0.998297466771201
1.00097763734234
0.999278582386979
0.999551281520101
1.00059059602076
0.998011797714103
1.00022015152155
0.999963232314739
0.99934254822621
1.00033972083051
0.997445805088368
1.00085755972227
0.999360906884369
0.999463640464622
1.00081544010295
0.999591858256604
0.99957574476039
1.00075898588706
0.999376684886319
1.0021732662073
0.999153622569548
1.00078211164647
0.998458431408411
1.00091906041253
0.99988778392115
0.999790004765256
0.999777880116902
0.999208212570034
1.00070018902961
0.999210096217172
1.00039527307275
0.999676711582423
0.999423172116048
1.00081529280474
0.998571282176158
1.0007325063451
0.9976284033901
1.0012592055281
0.998033579037528
1.00165499254257
0.997809361016942
1.00105208911272
0.999143217590476
1.00027486223492
0.998854738691978
1.00120983652523
0.99864443597552
1.00087193822477
0.99807788968847
1.0015757362188
0.997932067560889
1.00160912829709
0.998027071238494
1.00133101062177
0.998613018111444
1.00072707826838
0.998755511580894
1.00103796078681
0.998550663496522
1.00128676786896
0.998320952535421
1.00120376916568
0.998345669646982
1.00082465683896
0.998716475691893
1.00011027012813
0.999427610397829
0.999661784853571
0.999335120701756
1.00034159812601
1.00033532036235
1.00039591377441