/*--------------------------------*- C++ -*----------------------------------*\
| =========                 |                                                 |
| \\      /  F ield         | foam-extend: Open Source CFD                    |
|  \\    /   O peration     | Version:     4.0                                |
|   \\  /    A nd           | Web:         http://www.foam-extend.org         |
|    \\/     M anipulation  |                                                 |
\*---------------------------------------------------------------------------*/
FoamFile
{
    version     2.0;
    format      ascii;
    class       volScalarField;
    location    "10";
    object      rho;
}
// * * * * * * * * * * * * * * * * * * * * * * * * * * * * * * * * * * * * * //

dimensions      [1 -3 0 0 0 0 0];

internalField   nonuniform List<scalar> 
160000
(
0.999991715008392
0.999991741967487
0.99999168174569
0.999991484049539
0.999992173519042
0.999992413902222
0.999991756028502
0.999991923731924
0.999992073575096
0.999991964535717
0.999991599330975
0.999991648176887
0.999991624532529
0.999991865375896
0.999990851981557
0.999991586954418
0.99999172325779
0.999991320818137
0.999991274939694
0.999991647850721
0.999991057164099
0.999991968956638
0.999991596052785
0.999991864827884
0.999992150211857
0.999992079357253
0.999992127568408
0.999991987557684
0.999992396744156
0.999991937955302
0.999991857310949
0.999991818245217
0.999991559259868
0.999991656383343
0.99999166309385
0.999991616767451
0.999991588815266
0.999991716807953
0.999991629939835
0.999991863202277
0.99999280936854
0.99999096230696
0.999992492421659
0.999991677068943
0.999991969390663
0.999991948414639
0.999992243228331
0.999991958869455
0.99999321411507
0.999991845788641
0.999992193377736
0.999991644931875
0.999991673138019
0.99999163872339
0.999991260611482
0.999991339021693
0.999991434170586
0.999991166100725
0.999991316281037
0.999991128156383
0.999991045597176
0.999991111840663
0.999991608556526
0.999991328758901
0.999991323068217
0.999991443897492
0.999991564621009
0.999991608428824
0.999991720554969
0.999991662677143
0.999991555348264
0.999992592326884
0.99999200382696
0.999992074895419
0.999992206417918
0.999992508137966
0.999992619264363
0.999992700420805
0.999992572550522
0.999992550790534
0.999991407929741
0.999990938394523
0.999993792163319
0.999990532590044
0.999991028866596
0.999991455603748
0.999991331415207
0.999991383306036
0.999991864163769
0.99999217449406
0.99999191245494
0.999992786777612
0.999992861050347
0.999993315413147
0.999993025602892
0.999993743314257
0.9999938196357
0.999993515106272
0.999992914621288
0.999992516148366
0.999991973971763
0.99999224762464
0.999991588029928
0.999990891630227
0.999990969478557
0.999990929089278
0.999990463806706
0.999990639757637
0.999990735913215
0.999990742025075
0.999990546213962
0.999990378967195
0.999990982862118
0.999990799312578
0.999990933983759
0.999991216966127
0.999991144126781
0.999991555721306
0.999991946128864
0.999991648115202
0.99999195462406
0.999993658792699
0.999991878414743
0.999991933880772
0.999991997294728
0.999992230195773
0.999992144819569
0.999991986194293
0.999991883036364
0.999994081295838
0.9999928754594
0.999992069733189
0.999992346326928
0.999992178677015
0.999991998913757
0.999991707318745
0.999991532724918
0.999991240091481
0.999991014692805
0.99999136375652
0.999990765478883
0.999990760061203
0.999991470063989
0.999991523551835
0.999991479260966
0.999991880727854
0.999992067404051
0.999991976166574
0.999992877734822
0.99999243396919
0.999992654768659
0.99999281347809
0.999992909934161
0.999993240584904
0.999992160449593
0.999991081855339
0.999996599303041
0.999990686812095
0.999990904895162
0.999991787012905
0.999991205226188
0.999990788468999
0.999991044801474
0.999990710847438
0.999990810463023
0.999990807075574
0.999990907875428
0.99999120091907
0.999991499303705
0.999991512205507
0.999991249229059
0.999991075342229
0.999991375688612
0.999991984179109
0.99999180456244
0.999991925460578
0.999991776753592
0.999991914082317
0.999991853224927
0.999992167829766
0.999991730421576
0.99999203333933
0.99999179776983
0.99999182447785
0.999994183563099
0.999991953984742
0.999991675774092
0.999991946152329
0.999992076289787
0.999992032509172
0.999992010357778
0.999992144040145
0.999992114170348
0.9999923001688
0.999992344389931
0.999992028275235
0.999991779375961
0.999992303364649
0.999992167389806
0.999991747099667
0.999991962919609
0.999991764465854
0.999991669610801
0.999991828099753
0.999991901912381
0.999991658240929
0.99999209231598
0.999991506610054
0.999991960741851
0.999991332146921
0.999991072235129
0.999990767495918
0.999990492237302
0.999992030565534
0.999990097941533
0.999990404615029
0.999990833498484
0.999990631112205
0.999990525602432
0.999990685692795
0.999990930985011
0.999991397125978
0.999991774628851
0.999991927902895
0.999992536076858
0.999992831389192
0.999993128284652
0.999993742299133
0.999993634568001
0.999993448090033
0.999993341519681
0.999993017632538
0.999992875143316
0.999992467565428
0.999992106901516
0.999991377630537
0.999991702240967
0.999991105537996
0.9999911512552
0.999991656227429
0.999991297189825
0.999991242964909
0.999991674956618
0.99999237502851
0.999991808096847
0.999992200892964
0.999992058507499
0.999992317038509
0.999992241354375
0.99999349794695
0.999992193100263
0.999991609506567
0.999991896262983
0.99999168085693
0.999991716596322
0.999991467428989
0.999991913675861
0.999991662340226
0.9999911980481
0.999991936028229
0.999991635048232
0.999992016858055
0.999992075001342
0.99999232598395
0.99999255360795
0.999992387881406
0.999992549430589
0.999992397545213
0.99999149811996
0.999991450799904
0.999992381713908
0.999991231144584
0.999991663325636
0.999991230111988
0.999990745684846
0.999993496853702
0.9999912994836
0.999991825579477
0.999992288755359
0.999992941334437
0.99999294263922
0.99999328143807
0.999993550844971
0.999993666016902
0.999993747962209
0.99999343405704
0.999993369036983
0.999995617973904
0.999992712818697
0.999992691690007
0.999992771251033
0.999992418981132
0.999992137208133
0.999992065906429
0.999992042169911
0.999991999188981
0.999992247043209
0.999991776948631
0.99999209302172
0.999991671031384
0.999991356964591
0.999991745189529
0.999991271676921
0.999991449864102
0.999991246336601
0.99999131404584
0.999991352147546
0.999991252196768
0.999991181356852
0.99999171078326
0.999991612786836
0.999991606658822
0.999992009447247
0.999991751145578
0.999992072181337
0.999991825863794
0.999992090781556
0.999991645521451
0.999991757789129
0.999991554995057
0.999992237145356
0.999991509652773
0.999991420473089
0.999991522526465
0.999991505435959
0.999991317351434
0.99999131492264
0.999994529020221
0.999991479529121
0.999993066455719
0.999991955753818
0.99999223505633
0.999992080265962
0.999992452250184
0.999992403869162
0.999992081645484
0.999992484286955
0.99999195339751
0.999991474197535
0.999994018709332
0.999991645091903
0.999991494500358
0.999992198999445
0.999992193962837
0.999991886094732
0.999992412702502
0.999992339799587
0.999992418789506
0.999992491642205
0.999992752837867
0.999992759003489
0.999992405620442
0.999992456284535
0.999996369888333
0.999992429980394
0.999992248197711
0.999992068820413
0.999992192408419
0.999991888102139
0.999991461131957
0.999992349666418
0.999991882749272
0.999991800562572
0.999991939284659
0.999993278715392
0.99999197501184
0.999992744131727
0.999992802911033
0.999991642116402
0.999992543707577
0.999993194279032
0.999992423874259
0.999992304600261
0.999992121948067
0.999993651146168
0.999991428348682
0.999990542970786
0.999990891117616
0.999990403821639
0.999990811326039
0.999990041870392
0.999989969128125
0.999990886587007
0.999990373016331
0.999991166643012
0.999991312462238
0.999991620313708
0.999991684654591
0.999991687752329
0.999991687009351
0.999991847046747
0.999991956590655
0.999991777395305
0.999991880276416
0.999991514431665
0.999991512094329
0.999988376844773
0.99999147839161
0.999991042761882
0.999991507122873
0.999991840935707
0.999992023727148
0.999991962269273
0.999992230256411
0.999992672192279
0.999992715083824
0.99999189299307
0.999992295475362
0.999992380394442
0.999992222947305
0.999991775854582
0.999991783852998
0.999991777345014
0.999992091597392
0.999991776449276
0.999991872699555
0.999991904445108
0.999991496761221
0.999991230633732
0.999991905899915
0.999991166084045
0.999991832721905
0.999991718449012
0.99999184567118
0.999992112670691
0.999992202060935
0.99999197855195
0.999991971531446
0.999992440104371
0.999991965434954
0.999992070212825
0.999992156025054
0.999991770499554
0.999991994850282
0.999991978438909
0.99999186021863
0.999991962688426
0.999992369012088
0.999991936232423
0.999992158271721
0.999993197022724
0.999991659797062
0.99999276498619
0.999991839873901
0.999992233074669
0.999992168248564
0.999992159297673
0.99999200892943
0.9999935944196
0.999991828133504
0.999991979239934
0.999991749975743
0.99999179329176
0.999991827988523
0.999991553361688
0.999991585808986
0.99999155526415
0.999991437849275
0.999991292702407
0.999991400542905
0.999991275840759
0.999991385348948
0.999991916028975
0.999991523867125
0.999991454519664
0.999991578947579
0.999991485936123
0.999991518984932
0.99999160444198
0.999991228510984
0.999991232701099
0.999992023649242
0.999991635254334
0.999991789917808
0.999991943060376
0.999992275314262
0.999992395047306
0.9999927352671
0.999992366850285
0.999992374097071
0.999991301659428
0.999990893174749
0.999992882151747
0.999990427544715
0.99999094608483
0.999991361785846
0.999991300058354
0.999991302796733
0.999991936371697
0.999992239746813
0.999992118823364
0.999993035642535
0.999993207646117
0.999993530906023
0.999993620008115
0.99999394086112
0.999994181766525
0.999993503914368
0.999993017640005
0.999992596573803
0.999992226039623
0.999992326971036
0.999991543841245
0.999991220328555
0.999991193150415
0.999991195331599
0.999990805796461
0.999990997995922
0.99999053921109
0.999991199953615
0.999991105252311
0.999990874268835
0.999991403798142
0.999991250573908
0.999991320458613
0.999991433198725
0.999991285877243
0.99999167898375
0.999991869498322
0.999991450030937
0.999991576587775
0.999994387820724
0.999991414423265
0.999991770453804
0.99999199747156
0.999992247438087
0.999992284856144
0.999992135840434
0.999991934968816
0.999993977743736
0.999993388593994
0.999992369806728
0.999992716692678
0.999992485920771
0.999992218549391
0.999991844454554
0.999991882584445
0.999991257296141
0.999991108840864
0.999991676908463
0.999990938884605
0.999990815164065
0.999991551818208
0.999991596450962
0.999991626257268
0.999991975385968
0.999992242469471
0.999992126921117
0.999992845023594
0.999992513620727
0.999992722674205
0.999992784644011
0.999992717680057
0.99999369553993
0.999991817862006
0.999990479335489
0.999995428952896
0.999990272406903
0.999990650213585
0.999991712041487
0.999991185953837
0.999990856895993
0.999991175589781
0.999991143694002
0.999991019401196
0.99999098596934
0.999991143442867
0.999991322164775
0.999991489438444
0.999991744920221
0.999991440227453
0.999990821468881
0.999991440151063
0.999991765962785
0.999991512824158
0.999991541381757
0.999991668352179
0.99999169009654
0.999991702294416
0.999992228607132
0.99999185305357
0.999992144821299
0.999991913498259
0.999991680188106
0.999994791261917
0.999992064410695
0.999991941206084
0.999992404554091
0.999992475768383
0.99999232728021
0.99999217180877
0.999992322329516
0.999992142851803
0.999992305823176
0.999992250263998
0.999992074977816
0.999991449869156
0.99999194920839
0.99999196428116
0.999991420931984
0.999991608389088
0.999991266376352
0.99999127794982
0.9999913669993
0.999991418209557
0.999991246353175
0.999991529418365
0.999991012496858
0.999991640780514
0.99999092300242
0.99999071670668
0.999990428658976
0.999990265467769
0.999991673543476
0.99998998221696
0.999990420837383
0.999991814557677
0.999990859084556
0.999990801991552
0.99999118917327
0.999991289926435
0.999991697816617
0.999991929540722
0.999992009241028
0.999992181237663
0.999992761629226
0.999992936946537
0.999993473293226
0.999993281058512
0.999993150063917
0.999992962957721
0.999992689592959
0.999992288175438
0.999992059469671
0.999991682991379
0.999990994432047
0.999991133026537
0.999990721063048
0.999990614396138
0.999990917317877
0.999990695571219
0.999990757732614
0.999990930697164
0.999991721974764
0.999991069548564
0.999991648375737
0.999991484949473
0.999991793132522
0.999991800320437
0.999995060431633
0.999992011278142
0.999991601878995
0.999991964586125
0.999991834149682
0.99999187202619
0.999991648337597
0.999992023796377
0.999991883777678
0.999991321015972
0.999991966293505
0.999991419130333
0.999991875124874
0.999991914648034
0.999991960949497
0.999992237623247
0.999991912399421
0.999992249064949
0.999992032120331
0.99999125095731
0.9999912390129
0.999991919244505
0.999990998277878
0.99999148757069
0.999991057577322
0.999990866469232
0.999992800164111
0.999991064730715
0.999991567951913
0.999992220916306
0.999992671316105
0.999992783481972
0.999992974611547
0.999993228069022
0.999993424787868
0.999993585954276
0.999993181549111
0.999993003688356
0.999995602645826
0.999992508316015
0.999992630191543
0.999992681977841
0.999992317505664
0.999992169276922
0.999991982421234
0.999991975941317
0.999991724638359
0.999992050226158
0.999991369246417
0.999991748982962
0.999991110846113
0.999990966609635
0.999991553508195
0.999991076540183
0.999991284385598
0.999991140322651
0.999991254369926
0.999991357554213
0.999991271947744
0.99999135474343
0.999991839060503
0.999991763550989
0.999992035581507
0.999992118767082
0.999991927067517
0.999992228733566
0.99999185820833
0.999992129815259
0.999991624407052
0.999991686983374
0.999991408144519
0.999991804744366
0.999991359859299
0.999991290588458
0.999991298698161
0.999991429571145
0.999990989343731
0.999990693709199
0.999993625953145
0.999990744787929
0.999992914496776
0.999991514177027
0.999991900782058
0.999991815347066
0.999992236755572
0.99999225135413
0.999991916693048
0.99999222667412
0.999991933045367
0.999991050014058
0.999993386414156
0.9999908230547
0.999991048273751
0.999991727352298
0.999991699730578
0.999991405579937
0.999991920982972
0.999991519825742
0.999991951682946
0.999992088585678
0.999992288937008
0.999992546002819
0.999992251166237
0.999992409396316
0.99999573330932
0.999992637491566
0.999992552284618
0.999992368814826
0.999992550555153
0.999992326233404
0.999991865651942
0.999992690996195
0.999992321605065
0.999992302287568
0.999992476709835
0.999993504354842
0.999993653246308
0.999993262668103
0.999993361429289
0.999992139130184
0.999993029260968
0.99999362693165
0.999992930891883
0.999992688996475
0.999992414349113
0.9999946723059
0.999991376614445
0.999990897147063
0.999991230203439
0.999990744497469
0.999990843073321
0.999990365323998
0.999990215006225
0.999990739830594
0.999990559891084
0.999991154490237
0.99999104505934
0.999991357735609
0.999991426128539
0.999991580509831
0.999991278421552
0.999991439642182
0.999991671599778
0.999991255710036
0.999991382540698
0.999991136787185
0.999991159622881
0.999990226175081
0.999991314288425
0.999991032605572
0.999991551945986
0.999991827731055
0.999992065262624
0.999992030317894
0.999992683875587
0.999992782703775
0.999992781944597
0.999991894382632
0.999992414977113
0.999992432833543
0.999992233756036
0.999991809632096
0.999991808352454
0.999991757004671
0.999992059965008
0.99999241936699
0.999991873028385
0.999991898088783
0.999991583880955
0.999991197385045
0.999991978641172
0.999991296631164
0.999991820491035
0.999991743826961
0.999991782664416
0.999992020845101
0.999992245306298
0.999991898209395
0.99999194813098
0.999992393444715
0.999991992855631
0.999992210462433
0.999992358346703
0.999991982550784
0.999992233739911
0.99999223258269
0.999992058546489
0.99999225378375
0.999992749664602
0.999992191026906
0.999992411624879
0.999993362973228
0.999991995758132
0.999992951886876
0.999992055490359
0.999992426212856
0.999992334930526
0.999992168295885
0.999992090089494
0.99999360779803
0.999991856056064
0.999991937013583
0.999991898091618
0.999991931773701
0.99999202581345
0.999991857664064
0.999991790303947
0.999991726330651
0.999991654553549
0.999991209648809
0.999991629772146
0.999991452047297
0.999991569268001
0.999992052899345
0.99999164006164
0.999991553071268
0.999991655737634
0.999991471363211
0.99999146159322
0.999991547010525
0.999991018133271
0.999991097684766
0.999991497940805
0.999991391001691
0.999991552061482
0.999991754845544
0.999991983895484
0.999992098498427
0.999992599410455
0.999992119405024
0.999992177195898
0.999991357996797
0.999990958442125
0.999992484427505
0.999990550446774
0.999991029450063
0.999991374138167
0.999991400264023
0.999991362369191
0.999991988030234
0.999992204736498
0.99999219475365
0.999993016290484
0.999993164210551
0.999993450482922
0.999993647002438
0.999993694802013
0.999994020828634
0.999993230991863
0.999992871846431
0.999992484078501
0.999992289361996
0.999992216153204
0.999991547004135
0.999991503024476
0.999991395403918
0.999991433881034
0.999991180562073
0.99999134906841
0.999990384070085
0.999991545121686
0.999991531098386
0.999991319069389
0.99999170387566
0.999991585601639
0.999991622169827
0.999991647761081
0.999991417776551
0.999991722784016
0.999991788231447
0.999991325017077
0.999991313721698
0.99999443076523
0.999991149736136
0.999991676207492
0.9999920018599
0.999992249880708
0.999992379461168
0.999992264092799
0.999992054660712
0.999993795909399
0.999993592174166
0.999992524060157
0.999992941436261
0.999992662824997
0.999992345668573
0.999991954673954
0.999992064858792
0.999991359633733
0.999991192117892
0.999991831062345
0.999991055960892
0.999990928667004
0.999991558108856
0.999991602209509
0.999991617531771
0.999991916595947
0.999992210205682
0.999992081481949
0.999992646556792
0.999992386113747
0.99999254338654
0.999992554780981
0.999992391418296
0.999993706292565
0.999991575120103
0.999990287959044
0.999994554140996
0.99999031268843
0.999990741478403
0.999991834947115
0.999991341088059
0.999991102206547
0.999991428148433
0.999991560995521
0.999991304950606
0.999991272124021
0.999991389623601
0.999991460574372
0.999991527275681
0.999991831874123
0.999991536089008
0.999990971406292
0.999991445813998
0.999991621223695
0.99999136855901
0.999991280283457
0.999991619848173
0.999991617107329
0.999991616135791
0.999992235944837
0.999991944984987
0.999992251981386
0.999991994761001
0.999991563753252
0.999994836783132
0.99999215320465
0.999992128847919
0.99999263133255
0.999992647359401
0.99999244215449
0.999992215325052
0.999992340873267
0.999992118205615
0.999992204911742
0.999992094944557
0.99999198006959
0.999991237126073
0.999991692304142
0.999991860941526
0.999991282893866
0.999991445997724
0.999991024526895
0.999991123932019
0.999991168727012
0.999991191329663
0.999991051612121
0.999991222517357
0.999990791884513
0.999991443175195
0.999990760362036
0.99999066706023
0.999990453295126
0.999990410189895
0.999991646651488
0.999990295726709
0.999990706075161
0.999992591108611
0.999991252512461
0.999991240684493
0.999991724671114
0.999991695625315
0.999991941076642
0.999992034305931
0.999992013968695
0.999991774165951
0.999992473992041
0.999992529549888
0.999992939865796
0.999992689315482
0.999992626920927
0.999992431424749
0.999992223153509
0.999991720135444
0.999991702549131
0.999991350319773
0.999990769437429
0.999990877172084
0.999990580836755
0.999990407495446
0.999990540452612
0.99999042749825
0.999990548460226
0.999990584479333
0.9999912517995
0.999990605365648
0.999991241382224
0.999991053394459
0.999991302261013
0.999991367308507
0.99999511472421
0.999991696505301
0.999991530595434
0.999991840575863
0.999991761519343
0.999991834665878
0.999991681822014
0.999991942909042
0.999991959716412
0.999991393522909
0.999991976226779
0.99999136165603
0.999991806596438
0.999991842584352
0.999991731784271
0.999992002280419
0.999991624736293
0.999991987143573
0.999991790678277
0.999991178354468
0.999991281823917
0.999991725184154
0.999990993511077
0.999991442604208
0.99999109271282
0.999991163812741
0.999992427912628
0.999991012088639
0.999991430957901
0.999992072801245
0.999992344807467
0.999992448225656
0.999992520609996
0.999992723608035
0.999992952003304
0.999993151768205
0.999992707394374
0.999992478693532
0.999994945735287
0.99999220559956
0.999992362670122
0.999992432420431
0.999992046264581
0.999992050661946
0.999991768736037
0.999991791781219
0.999991464017704
0.999991745484314
0.999991075195779
0.999991453960737
0.999990708360008
0.999990763909097
0.999991383161321
0.999990986836716
0.999991201133895
0.999991123232478
0.99999119393088
0.999991379493395
0.999991316800729
0.999991448097232
0.999991852506088
0.999991784658036
0.999992189689175
0.999992074144202
0.999991907443428
0.999992180316651
0.999991760431408
0.99999206155817
0.999991556242815
0.999991610997547
0.999991349193795
0.999991647565182
0.999991336145755
0.999991325405272
0.999991273344509
0.999991586781695
0.999990975682941
0.999990526358297
0.999993028748762
0.999990507691525
0.99999275651017
0.999991331337683
0.999991748277528
0.999991711701319
0.999992130055266
0.999992122118037
0.999991886913517
0.999992077720636
0.999991999281645
0.99999097894446
0.999992985610336
0.999990387361915
0.999990968743719
0.999991505157495
0.999991426187128
0.999991214018569
0.999991592507053
0.999991012113533
0.999991591816563
0.999991726009352
0.99999187201433
0.999992187762023
0.999992031265231
0.999992206736612
0.999994976330917
0.999992579722348
0.999992552464209
0.999992403604219
0.999992597628053
0.999992423292137
0.999992017222512
0.999992784942001
0.999992451357275
0.999992471858125
0.999992621579381
0.999993432462847
0.999994556301824
0.999993313851637
0.999993454364117
0.999992541937374
0.999993193042917
0.999993698933532
0.999993155700728
0.999992865256119
0.999992521915146
0.999994904402313
0.999991575324446
0.999991256618523
0.999991615378547
0.999991195088595
0.999991181316045
0.999990842248067
0.999990648325041
0.999990988828231
0.999990887910125
0.999991301584207
0.999991067445976
0.999991319842616
0.99999133120259
0.99999156914341
0.999991072662276
0.999991206842517
0.999991443525919
0.999990961431443
0.999991032885121
0.999990892461746
0.999990915091089
0.999991389376758
0.999991151375062
0.999991085931375
0.999991511937512
0.999991747074097
0.999992026510732
0.999992020883765
0.999993118882064
0.999992807146171
0.999992800973426
0.99999190369418
0.999992510015116
0.999992452927854
0.999992204629036
0.999991833565254
0.999991827101997
0.999991708474232
0.999991974259158
0.999993082662342
0.999991820247781
0.999991867797983
0.999991687661486
0.999991187616968
0.999992053389591
0.999991502880334
0.999991816028122
0.999991770990943
0.999991727174493
0.99999191946023
0.999992283300761
0.999991814279832
0.999991918188897
0.999992330738579
0.999992016256622
0.999992339494915
0.999992536734621
0.999992206321966
0.99999246198967
0.999992483920744
0.999992261164285
0.999992542686398
0.999993106345507
0.999992440741087
0.999992664077088
0.999993497552605
0.999992314129589
0.999993120391579
0.999992289516038
0.999992612019617
0.99999249219801
0.999992204582751
0.999992175855654
0.999993538303843
0.999991901704833
0.999991920134509
0.999992080599329
0.999992095979718
0.999992241976511
0.999992224404597
0.999992021179012
0.999991936859114
0.999991916444625
0.999991140893091
0.99999189833245
0.999991643926581
0.999991766338501
0.999992186555012
0.999991754541483
0.999991660917995
0.999991736579979
0.999991477059727
0.999991418841722
0.999991523527435
0.999990854316622
0.999991023137468
0.999990957140366
0.999991182310951
0.999991331864155
0.999991583692671
0.999991678314308
0.999991774271005
0.999992428973645
0.999991844925143
0.999991948860926
0.999991462004681
0.999991012938998
0.999992061226242
0.999990671465721
0.999991106320523
0.999991360035734
0.999991493670525
0.999991422923872
0.999992033035522
0.999992132976059
0.999992271200266
0.999992981027469
0.99999309354155
0.999993313591422
0.999993616873706
0.999993378563235
0.999993765433872
0.999992885207914
0.999992658561746
0.999992291925893
0.999992291901402
0.999991997401757
0.999991573275681
0.999991764260815
0.999991576884922
0.999991664513583
0.999991590511869
0.999991750648881
0.999990324251395
0.99999192949911
0.999992022542999
0.999991840160351
0.999992067808628
0.999991979236985
0.999991982611373
0.999991921183393
0.999991595667567
0.999991789213143
0.999991736143171
0.999991227783845
0.999991054914938
0.99999436769665
0.999990893968122
0.999991582651654
0.99999200771176
0.999992245470632
0.999992476963267
0.999992405945363
0.999992205852294
0.999993612755819
0.999993771304534
0.99999268775779
0.999993179420666
0.999992845123756
0.999992482284609
0.999992074362666
0.999992249296791
0.999991484321232
0.999991295024994
0.999991989918476
0.999991187126305
0.999991100579457
0.999991593892231
0.999991637327669
0.999991626191909
0.999991862448637
0.999992205148199
0.999992039220152
0.999992432570712
0.999992235242789
0.999992310404704
0.999992282781403
0.999992008967379
0.99999361222371
0.999991302535695
0.999990123712301
0.999993658046329
0.999990386382878
0.999990863382342
0.999991974061379
0.999991516797515
0.999991380767731
0.999991697345461
0.999992000476045
0.999991625383925
0.999991602472463
0.999991666578705
0.999991633497849
0.999991602533978
0.99999191726563
0.999991649758228
0.999991205524382
0.999991463088907
0.999991498348311
0.999991252577025
0.9999910262276
0.99999158253604
0.99999155793144
0.99999152512086
0.999992223972632
0.999992027208343
0.999992341348574
0.999992058083541
0.999991426084698
0.99999479201108
0.999992208444104
0.999992273185568
0.999992798799772
0.999992747925285
0.999992501729245
0.999992209996467
0.999992316399006
0.999992078959323
0.999992071351737
0.999991926842985
0.999991859179609
0.999991060153815
0.999991458712658
0.99999179902973
0.999991193419377
0.999991327421376
0.999990830742392
0.999991032703488
0.999991022667685
0.99999101610327
0.999990907524913
0.999990952083874
0.999990629310776
0.99999129999756
0.999990669409049
0.999990712761114
0.999990598539905
0.999990675767441
0.999991744677805
0.999990775994062
0.999991099522849
0.999993437271206
0.999991734973073
0.999991761424111
0.999992316330371
0.999992133069645
0.999992167699188
0.999992115878281
0.999991994334889
0.999991317168671
0.999992095341619
0.999992029972551
0.999992288977418
0.999991983647893
0.999991999640299
0.999991823652031
0.99999169493426
0.999991119104938
0.99999131947273
0.999990993842102
0.999990535560344
0.99999061581711
0.999990453056983
0.999990218100511
0.999990177972439
0.999990166706239
0.999990341167637
0.999990258640986
0.99999077078362
0.999990159232479
0.999990822471739
0.999990644594136
0.999990802743529
0.999990944242975
0.999995052385344
0.999991377792678
0.999991516081565
0.999991715196856
0.999991692540953
0.999991806551547
0.99999173223144
0.9999918461471
0.99999206167786
0.999991505266528
0.999992027071251
0.999991397877602
0.999991792939904
0.999991839192926
0.999991566978023
0.999991802663149
0.999991409912691
0.999991713653075
0.999991599779722
0.999991199028195
0.999991339775296
0.999991562702473
0.999991013208807
0.999991379874675
0.999991123124741
0.999991448037361
0.999992010404771
0.999990911198232
0.999991239163171
0.999991846792811
0.999991912200499
0.999992013504077
0.99999196533805
0.999992120380063
0.999992374991579
0.999992600265665
0.999992141170553
0.999991866936086
0.999994117408607
0.999991865466993
0.999992037425901
0.99999213813716
0.999991728816261
0.999991908387434
0.999991522026586
0.999991571250939
0.999991192873079
0.999991416433457
0.999990775767756
0.999991147566405
0.999990315121544
0.999990577410848
0.999991218482546
0.999990893738053
0.999991122466955
0.999991126161188
0.999991121494296
0.999991407296359
0.999991365077742
0.999991538747044
0.999991846899094
0.999991782129384
0.999992304300608
0.999991978567475
0.999991848851025
0.999992076219233
0.999991608933166
0.999991936827955
0.999991441625189
0.999991493297782
0.99999126257986
0.999991478639715
0.999991291129914
0.999991361120801
0.999991247564305
0.999991771121215
0.999990985735917
0.999990385099484
0.999992444957227
0.999990317730244
0.999992574351511
0.999991156271161
0.999991599195494
0.99999161767567
0.999992030619085
0.999991951532027
0.999991868714222
0.99999194645164
0.999992074466899
0.999990960502621
0.999992627778819
0.999989996839523
0.999990975911357
0.99999133309842
0.999991201581223
0.99999111763517
0.999991313892777
0.999990571651466
0.999991279270658
0.999991397679428
0.999991477957745
0.999991785464866
0.999991815883827
0.999991979613136
0.999994240186284
0.999992453708363
0.999992474659417
0.9999923616945
0.999992548593531
0.99999241797844
0.999992070278714
0.99999276592214
0.999992476204291
0.999992538755547
0.999992629544152
0.999993215715033
0.999995350311258
0.999993244127079
0.999993466599223
0.999992950545596
0.999993323272709
0.999993730019584
0.999993361852859
0.999993027866138
0.999992612063923
0.999995035757928
0.999991771938273
0.999991650118509
0.999992025204434
0.999991674586569
0.999991553186813
0.999991355603349
0.999991138230962
0.999991286085866
0.999991280422231
0.999991528303706
0.999991168428064
0.999991373238386
0.999991315135216
0.999991651015502
0.999990951025372
0.999991052706817
0.999991251818729
0.999990723602013
0.999990718180633
0.999990663573769
0.999990663824086
0.999992451963841
0.999990942641108
0.999991147136811
0.999991410332116
0.999991594773778
0.999991873226891
0.999991894312087
0.99999342343819
0.999992662238086
0.999992710705101
0.999991902505934
0.999992510855175
0.999992385389727
0.999992089239148
0.999991820792871
0.99999181910864
0.99999161093419
0.999991797603165
0.999993626668057
0.999991675036897
0.999991784809627
0.99999177876282
0.999991203996601
0.999992084943455
0.999991774887668
0.999991836662701
0.999991782182819
0.999991685151892
0.99999181762207
0.999992303679547
0.999991753063417
0.999991887820434
0.999992243767541