/*--------------------------------*- C++ -*----------------------------------*\
| =========                 |                                                 |
| \\      /  F ield         | OpenFOAM: The Open Source CFD Toolbox           |
|  \\    /   O peration     | Version:  v1712                                 |
|   \\  /    A nd           | Web:      www.OpenFOAM.com                      |
|    \\/     M anipulation  |                                                 |
\*---------------------------------------------------------------------------*/
FoamFile
{
    version     2.0;
    format      ascii;
    class       volScalarField;
    location    "4";
    object      T;
}
// * * * * * * * * * * * * * * * * * * * * * * * * * * * * * * * * * * * * * //

dimensions      [0 0 0 1 0 0 0];


internalField   nonuniform List<scalar> 
160000
(
1.0500076023201
1.05000760151501
1.0500076007099
1.05000759990373
1.05000759909548
1.0500075982855
1.05000759748016
1.05000759698379
1.0500075961955
1.05000759542472
1.05000759466786
1.05000759393201
1.05000759321086
1.05000759251609
1.05000759183938
1.05000759117987
1.05000759054519
1.05000758992738
1.05000758932569
1.05000758843151
1.0500075878507
1.05000758728279
1.05000758672823
1.050007586179
1.05000758564695
1.05000758512579
1.05000758462042
1.05000758412305
1.05000758350299
1.05000758305654
1.05000758263025
1.05000758223847
1.05000758185468
1.05000758149033
1.05000758114162
1.05000758080726
1.05000758063971
1.05000758033308
1.05000758002921
1.05000757975211
1.05000757949235
1.05000757925611
1.05000757903581
1.05000757884307
1.0500075786786
1.05000757854212
1.05000757843191
1.05000757835924
1.05000757832352
1.05000757830766
1.05000757831554
1.05000757834711
1.05000757840434
1.05000757848238
1.05000757858282
1.05000757870433
1.05000757884455
1.05000757900338
1.0500075791771
1.05000757937805
1.05000757960518
1.05000757985191
1.05000758011718
1.05000758040177
1.05000758070319
1.05000758101747
1.05000758134546
1.05000758168627
1.05000758204745
1.05000758240934
1.05000758262947
1.05000758301576
1.05000758341572
1.05000758383287
1.05000758426985
1.05000758471851
1.05000758519975
1.05000758570569
1.05000758638651
1.05000758694862
1.05000758751545
1.0500075881029
1.05000758869895
1.05000758931204
1.05000758993129
1.05000759056442
1.0500075912071
1.05000759216087
1.05000759282213
1.0500075934941
1.05000759418107
1.05000759488833
1.05000759560593
1.05000759634
1.05000759708845
1.0500075978537
1.0500075986288
1.05000759941174
1.05000759990061
1.05000760069555
1.05000760149349
1.05000760228223
1.05000760306746
1.05000760384224
1.05000760461374
1.05000760537813
1.05000760614008
1.0500076068988
1.05000760765476
1.05000760842219
1.05000760919306
1.05000760997016
1.05000761075603
1.0500076115486
1.05000761235101
1.0500076131611
1.05000761397712
1.05000761479634
1.05000761562046
1.05000761644374
1.05000761726704
1.05000761808455
1.05000761889776
1.05000761970077
1.05000762049176
1.05000762126697
1.05000762202513
1.05000762276048
1.05000762346534
1.05000762413762
1.05000762477295
1.05000762536279
1.05000762621499
1.05000762671795
1.05000762716661
1.05000762756541
1.05000762790726
1.05000762818886
1.05000762840684
1.05000762856307
1.05000762865425
1.05000762868302
1.05000762864762
1.05000762825214
1.0500076281045
1.05000762790565
1.05000762765585
1.05000762736079
1.05000762701822
1.0500076266277
1.05000762618791
1.05000762569793
1.05000762515506
1.05000762455695
1.05000762390199
1.05000762319358
1.05000762243448
1.05000762162777
1.05000762078096
1.05000761990824
1.05000761902049
1.05000761813455
1.0500076172628
1.05000761643023
1.0500076156457
1.0500076149268
1.05000761428497
1.05000761372945
1.05000761326393
1.05000761288901
1.05000761260528
1.05000761239939
1.05000761226334
1.05000761217279
1.05000761211157
1.05000761205471
1.0500076119772
1.05000761185091
1.0500076116497
1.05000761134489
1.05000761091428
1.05000761033159
1.0500076095814
1.05000760863855
1.05000760749287
1.05000760612996
1.05000760454594
1.05000760273472
1.05000760070217
1.05000759845511
1.05000759600678
1.0500075933777
1.05000759059117
1.0500075876722
1.05000758465415
1.0500075815653
1.05000757844469
1.0500075753217
1.05000757223052
1.05000756919752
1.05000756624976
1.05000756340518
1.05000756068307
1.05000755809192
1.05000755564012
1.05000755332795
1.05000755115761
1.05000754911947
1.05000754720657
1.05000754540789
1.05000754371092
1.0500075421013
1.05000754056182
1.05000753907697
1.05000753762715
1.05000753619544
1.05000753475932
1.05000753330188
1.05000753179753
1.05000753023753
1.05000752860352
1.05000752689432
1.05000752510468
1.05000752324612
1.05000752131993
1.05000751934438
1.05000751733333
1.05000751530755
1.05000751329059
1.05000751130719
1.05000750938895
1.05000750756066
1.05000750585938
1.05000750430766
1.05000750293435
1.05000750175695
1.05000750079404
1.05000750005313
1.05000749954062
1.05000749924944
1.05000749917484
1.05000749929335
1.05000749958571
1.05000750002194
1.0500075005667
1.0500075011865
1.05000750183861
1.05000750250523
1.05000750310576
1.05000750363967
1.05000750406644
1.05000750436851
1.05000750452523
1.05000750453379
1.0500075043872
1.05000750409865
1.05000750368228
1.05000750316228
1.05000750256717
1.05000750193462
1.05000750130026
1.05000750070709
1.0500075001914
1.05000749979427
1.05000749954434
1.05000749947799
1.05000749961379
1.05000749997254
1.05000750056241
1.05000750139002
1.05000750245077
1.05000750373663
1.05000750523094
1.05000750691385
1.05000750875857
1.05000751073714
1.05000751281838
1.05000751496997
1.05000751716224
1.0500075193661
1.05000752155623
1.05000752371019
1.05000752580932
1.05000752783884
1.05000752978767
1.05000753164847
1.05000753341976
1.05000753510667
1.05000753672022
1.05000753827742
1.05000753979866
1.05000754130534
1.05000754281859
1.05000754435859
1.0500075459444
1.05000754759331
1.05000754932301
1.0500075511474
1.05000755307973
1.05000755513015
1.05000755730545
1.05000755961129
1.0500075620482
1.05000756461475
1.05000756730238
1.05000757010469
1.05000757300496
1.05000757598563
1.05000757902361
1.05000758209634
1.05000758517096
1.05000758821971
1.05000759121014
1.0500075941118
1.05000759689442
1.05000759953026
1.05000760199499
1.05000760426815
1.05000760633385
1.05000760818149
1.05000760980492
1.05000761120591
1.05000761238999
1.05000761336705
1.05000761415085
1.05000761475919
1.05000761521242
1.05000761553385
1.05000761574692
1.05000761587672
1.05000761595669
1.05000761601061
1.05000761606548
1.0500076161467
1.05000761627443
1.05000761646675
1.05000761673969
1.05000761709627
1.05000761754307
1.05000761807829
1.05000761869494
1.05000761938169
1.0500076201291
1.05000762091493
1.05000762172934
1.0500076225513
1.05000762336873
1.05000762415977
1.05000762491812
1.05000762563035
1.05000762629211
1.0500076268954
1.0500076274409
1.05000762792477
1.05000762834851
1.05000762871241
1.05000762901645
1.05000762925872
1.05000762944142
1.05000762956125
1.05000762961803
1.05000762961044
1.05000762953575
1.05000762969619
1.05000762948673
1.05000762920584
1.05000762885892
1.0500076284491
1.05000762797888
1.05000762745275
1.05000762687702
1.05000762625856
1.05000762560187
1.05000762490738
1.0500076238834
1.05000762313276
1.05000762236062
1.0500076215658
1.05000762075363
1.0500076199299
1.05000761909618
1.05000761825489
1.05000761740834
1.0500076165577
1.05000761570207
1.05000761484563
1.05000761398544
1.05000761312638
1.05000761226561
1.05000761141064
1.05000761055462
1.0500076097039
1.05000760885845
1.05000760802134
1.05000760718918
1.05000760635849
1.05000760554032
1.05000760473008
1.05000760392272
1.05000760312395
1.05000761848969
1.05000761770772
1.05000761692604
1.0500076161449
1.05000761536198
1.05000761457796
1.0500076137999
1.05000761336838
1.05000761260633
1.0500076118596
1.0500076111255
1.05000761041081
1.05000760971064
1.05000760903409
1.05000760837446
1.05000760773297
1.05000760711308
1.05000760650948
1.05000760592054
1.05000760500096
1.05000760443482
1.05000760388065
1.05000760333747
1.05000760280171
1.0500076022827
1.05000760177441
1.0500076012814
1.05000760079862
1.05000760023034
1.05000759979587
1.05000759938236
1.05000759900149
1.05000759862803
1.05000759827511
1.05000759793634
1.05000759761176
1.05000759741605
1.05000759711872
1.05000759682328
1.05000759655476
1.05000759630371
1.05000759607308
1.05000759586077
1.05000759567519
1.05000759551674
1.0500075953866
1.05000759528404
1.05000759521589
1.05000759518205
1.05000759516957
1.05000759518071
1.05000759521343
1.05000759527132
1.05000759534897
1.05000759544851
1.05000759556805
1.050007595704
1.05000759585878
1.05000759602809
1.05000759622341
1.05000759644312
1.05000759668193
1.05000759693946
1.0500075972154
1.05000759750779
1.05000759781441
1.05000759813206
1.05000759846334
1.05000759881396
1.05000759916506
1.0500075994117
1.0500075997868
1.05000760017529
1.05000760058025
1.05000760100468
1.05000760144023
1.05000760190712
1.05000760239899
1.05000760302586
1.05000760357084
1.05000760412201
1.05000760469272
1.05000760527266
1.05000760586884
1.05000760647372
1.05000760709027
1.05000760771712
1.05000760869459
1.05000760934237
1.05000761000025
1.05000761067256
1.05000761136204
1.05000761206351
1.05000761277994
1.05000761350993
1.0500076142542
1.05000761500873
1.05000761576783
1.05000761619414
1.05000761696462
1.05000761773721
1.05000761850108
1.05000761926236
1.05000762001369
1.05000762076178
1.05000762150335
1.05000762224347
1.05000762298034
1.0500076237153
1.05000762445811
1.05000762520459
1.05000762595628
1.05000762671559
1.05000762748061
1.050007628254
1.05000762903461
1.05000762982079
1.05000763061087
1.05000763140484
1.05000763219943
1.0500076329955
1.05000763378729
1.05000763457715
1.05000763535985
1.05000763613408
1.05000763689596
1.05000763764506
1.05000763837474
1.0500076390783
1.05000763975223
1.05000764039244
1.05000764099211
1.05000764189344
1.05000764240808
1.05000764286976
1.05000764328057
1.05000764363352
1.05000764392386
1.05000764414597
1.05000764430191
1.05000764438847
1.05000764440853
1.05000764436201
1.05000764391589
1.05000764375695
1.05000764355199
1.05000764330145
1.05000764301273
1.05000764268374
1.05000764231364
1.0500076419
1.05000764144099
1.05000764093043
1.05000764036555
1.05000763974272
1.05000763906012
1.05000763831875
1.05000763752094
1.05000763667153
1.05000763578393
1.05000763486799
1.05000763394162
1.05000763301781
1.05000763212154
1.0500076312666
1.05000763047234
1.05000762975284
1.05000762912121
1.05000762858435
1.05000762814645
1.05000762780823
1.05000762756021
1.0500076273963
1.05000762729475
1.05000762724043
1.05000762720908
1.05000762717564
1.0500076271106
1.0500076269858
1.05000762676949
1.0500076264371
1.05000762595889
1.05000762531597
1.0500076244831
1.05000762344729
1.05000762219108
1.05000762070906
1.0500076189921
1.05000761704442
1.05000761487081
1.05000761248296
1.05000760990112
1.05000760714841
1.05000760425041
1.05000760124211
1.05000759815506
1.05000759502774
1.05000759189308
1.05000758878717
1.05000758573759
1.05000758277177
1.05000757990737
1.05000757716336
1.05000757454718
1.05000757206664
1.05000756972135
1.05000756751189
1.05000756543269
1.05000756347568
1.05000756163221
1.05000755989172
1.05000755824273
1.05000755667082
1.05000755516423
1.05000755370686
1.05000755228657
1.05000755088397
1.05000754948517
1.05000754806458
1.05000754660831
1.05000754509325
1.05000754351337
1.05000754185705
1.05000754013001
1.05000753833172
1.0500075364754
1.05000753457055
1.05000753263471
1.05000753068797
1.05000752875243
1.05000752685843
1.05000752503143
1.05000752330629
1.0500075217081
1.05000752026818
1.05000751900624
1.05000751794443
1.05000751709304
1.05000751646261
1.05000751604861
1.05000751584882
1.05000751584444
1.05000751601798
1.05000751634057
1.0500075167784
1.05000751730064
1.05000751787192
1.0500075184564
1.05000751899269
1.05000751947393
1.05000751986203
1.05000752013891
1.05000752028392
1.05000752029278
1.05000752016065
1.05000751989905
1.05000751952164
1.05000751905163
1.05000751851703
1.05000751795545
1.05000751740159
1.0500075168985
1.05000751648096
1.05000751618974
1.05000751605249
1.05000751610157
1.05000751635357
1.05000751682734
1.05000751752726
1.05000751845732
1.05000751960923
1.05000752097237
1.05000752252686
1.05000752425062
1.05000752611478
1.05000752809023
1.0500075301454
1.05000753224834
1.05000753437109
1.05000753648689
1.05000753857365
1.05000754061244
1.05000754258828
1.05000754449016
1.05000754631097
1.0500075480478
1.05000754970443
1.0500075512916
1.05000755282567
1.05000755432694
1.05000755581673
1.05000755731436
1.0500075588374
1.05000756040183
1.05000756202305
1.05000756371478
1.05000756549196
1.0500075673657
1.05000756934735
1.05000757144496
1.050007573664
1.05000757600914
1.05000757848092
1.05000758107796
1.0500075837919
1.05000758661744
1.05000758953811
1.05000759253637
1.05000759558895
1.05000759867271
1.05000760175261
1.05000760479929
1.05000760777861
1.05000761065811
1.05000761340654
1.05000761599524
1.0500076184001
1.05000762060136
1.05000762258449
1.05000762434049
1.05000762586511
1.0500076271624
1.05000762824027
1.05000762911054
1.05000762978923
1.05000763029631
1.05000763065484
1.05000763089017
1.05000763103025
1.05000763110229
1.05000763114148
1.05000763117279
1.0500076312242
1.05000763131873
1.05000763147594
1.05000763171183
1.05000763203912
1.05000763246035
1.0500076329782
1.05000763358662
1.05000763427692
1.05000763503346
1.0500076358445
1.05000763668592
1.05000763754353
1.05000763839625
1.05000763923139
1.05000764002786
1.05000764078027
1.05000764147613
1.05000764211416
1.05000764268761
1.05000764319961
1.05000764364945
1.05000764404136
1.05000764437557
1.0500076446549
1.05000764487828
1.05000764504814
1.05000764516198
1.05000764521887
1.05000764521743
1.05000764515371
1.05000764536466
1.05000764516739
1.05000764489722
1.05000764455831
1.05000764415355
1.05000764368355
1.05000764315524
1.05000764257491
1.05000764195038
1.05000764128794
1.05000764058847
1.05000763952167
1.05000763876872
1.05000763799809
1.05000763720803
1.05000763640373
1.05000763559152
1.05000763477257
1.05000763394902
1.05000763312293
1.05000763229539
1.05000763146496
1.0500076306349
1.05000762980178
1.05000762897068
1.05000762813872
1.05000762731169
1.05000762648311
1.05000762565976
1.05000762484158
1.05000762403009
1.05000762322313
1.05000762241778
1.05000762162282
1.05000762083526
1.05000762004982
1.05000761927139
1.05000763850089
1.05000763772917
1.05000763695782
1.05000763618835
1.05000763541739
1.05000763464591
1.05000763388141
1.05000763349372
1.05000763274456
1.05000763200857
1.05000763128455
1.0500076305785
1.05000762988683
1.05000762921673
1.05000762856289
1.05000762792727
1.05000762731183
1.05000762671251
1.05000762612705
1.05000762518074
1.05000762462116
1.05000762407302
1.05000762353518
1.05000762300631
1.05000762249436
1.05000762199297
1.05000762150646
1.05000762103258
1.05000762051081
1.05000762008255
1.05000761967604
1.05000761929996
1.05000761893088
1.05000761858329
1.05000761824856
1.05000761792792
1.05000761769737
1.0500076174038
1.05000761711211
1.05000761684721
1.05000761660049
1.05000761637156
1.05000761616338
1.05000761598139
1.05000761582569
1.05000761569882
1.05000761560113
1.05000761553531
1.05000761550143
1.05000761549087
1.05000761550394
1.05000761553778
1.0500076155967
1.05000761567505
1.05000761577552
1.05000761589528
1.05000761603024
1.05000761618432
1.050007616353
1.05000761654649
1.05000761676277
1.05000761699792
1.05000761725191
1.05000761752339
1.05000761781102
1.0500076181141
1.05000761842593
1.05000761875239
1.05000761909727
1.05000761944302
1.05000761972286
1.05000762009263
1.05000762047568
1.05000762087463
1.05000762129299
1.05000762172207
1.05000762218104
1.05000762266541
1.05000762324456
1.05000762377921
1.05000762432204
1.05000762488358
1.05000762545535
1.05000762604337
1.05000762664206
1.05000762725177
1.05000762787309
1.05000762887717
1.05000762952209
1.05000763017676
1.05000763084547
1.05000763152982
1.05000763222672
1.05000763293733
1.05000763366082
1.0500076343967
1.05000763514298
1.05000763589109
1.05000763627498
1.05000763703414
1.05000763779433
1.05000763854627
1.05000763929633
1.05000764003693
1.05000764077412
1.05000764150516
1.05000764223531
1.05000764296204
1.05000764368737
1.05000764441799
1.05000764515247
1.05000764589168
1.05000764663811
1.05000764738985
1.05000764814927
1.0500076489162
1.05000764968886
1.05000765046675
1.05000765124775
1.05000765203116
1.05000765281767
1.05000765360152
1.0500076543855
1.05000765516513
1.05000765593922
1.05000765670376
1.05000765745878
1.05000765819651
1.0500076589111
1.05000765959762
1.05000766025193
1.05000766086894
1.05000766181764
1.05000766234809
1.05000766282543
1.05000766324999
1.05000766361516
1.05000766391568
1.05000766414426
1.05000766430368
1.05000766439112
1.05000766440991
1.05000766436138
1.05000766388271
1.05000766372369
1.05000766352361
1.05000766328241
1.05000766300846
1.05000766269951
1.05000766235395
1.05000766196818
1.05000766153931
1.05000766105809
1.05000766052144
1.05000765992413
1.05000765925979
1.05000765852851
1.05000765773224
1.05000765687423
1.05000765596759
1.05000765502204
1.0500076540568
1.05000765308628
1.05000765213507
1.05000765122224
1.050007650369
1.05000764959173
1.05000764890625
1.05000764832178
1.05000764784598
1.05000764747937
1.05000764721493
1.05000764704703
1.05000764695583
1.05000764692646
1.05000764693482
1.05000764695548
1.05000764695768
1.05000764691115
1.05000764678146
1.05000764654119
1.05000764615749
1.05000764560771
1.05000764486679
1.05000764391895
1.05000764274462
1.05000764133724
1.05000763968567
1.05000763779298
1.05000763566282
1.05000763330567
1.05000763074248
1.05000762799623
1.05000762509364
1.05000762207115
1.05000761896378
1.05000761580938
1.05000761264442
1.05000760950666
1.05000760642516
1.05000760342785
1.05000760053273
1.05000759775877
1.05000759511311
1.0500075926032
1.05000759022853
1.05000758798809
1.0500075858801
1.05000758389483
1.0500075820254
1.05000758026225
1.05000757859547
1.05000757701212
1.05000757550215
1.05000757405101
1.05000757264886
1.05000757127815
1.05000756992705
1.05000756857096
1.05000756719188
1.05000756576377
1.0500075642762
1.05000756271239
1.05000756107255
1.0500075593553
1.0500075575698
1.05000755572301
1.0500075538307
1.05000755191127
1.05000754998572
1.0500075480843
1.05000754623424
1.05000754446894
1.05000754281662
1.05000754131095
1.05000753997407
1.05000753883111
1.0500075378949
1.05000753717902
1.05000753668104
1.05000753639992
1.05000753632048
1.05000753642553
1.0500075366863
1.05000753706923
1.05000753754446
1.05000753808555
1.05000753862973
1.05000753914394
1.05000753960646
1.0500075399828
1.05000754025257
1.05000754039472
1.05000754040303
1.05000754027508
1.05000754002125
1.05000753965609
1.05000753920232
1.05000753868893
1.0500075381542
1.05000753763321
1.05000753716984
1.05000753679896
1.05000753656193
1.05000753648708
1.050007536604
1.05000753692895
1.05000753747971
1.05000753825826
1.05000753926656
1.0500075404936
1.05000754192634
1.05000754354217
1.05000754531663
1.05000754721866
1.05000754921742
1.05000755128019
1.05000755337432
1.05000755547226
1.05000755754801
1.05000755958102
1.05000756155413
1.05000756345457
1.05000756527385
1.050007567008
1.05000756865795
1.05000757023213
1.05000757174587
1.05000757321953
1.05000757467538
1.0500075761349
1.05000757761585
1.05000757913389
1.05000758070312
1.05000758233758
1.0500075840495
1.05000758585239
1.05000758775591
1.05000758977023
1.05000759190197
1.0500075941556
1.05000759653497
1.05000759904044
1.0500076016704
1.05000760441616
1.05000760727327
1.05000761022504
1.05000761325371
1.0500076163357
1.05000761944744
1.0500076225517
1.05000762561779
1.05000762860984
1.05000763149329
1.0500076342356
1.05000763680679
1.05000763918233
1.05000764134261
1.05000764327363
1.05000764496735
1.0500076464207
1.05000764763926
1.05000764863255
1.05000764941389
1.05000765000124
1.0500076504166
1.05000765068577
1.05000765083628
1.05000765090055
1.05000765090796
1.05000765089518
1.05000765088856
1.05000765091717
1.05000765100236
1.05000765116383
1.05000765141679
1.05000765177161
1.05000765223158
1.05000765279618
1.05000765345655
1.05000765420235
1.05000765501468
1.05000765587904
1.05000765676999
1.05000765766833
1.0500076585531
1.05000765940974
1.05000766021784
1.05000766097168
1.05000766165936
1.05000766228156
1.05000766283255
1.05000766331723
1.05000766373753
1.05000766410007
1.05000766440501
1.05000766465779
1.05000766485823
1.050007665009
1.05000766510853
1.05000766515545
1.05000766514866
1.05000766508358
1.05000766532535
1.05000766512863
1.05000766485864
1.05000766451843
1.05000766411057
1.05000766363382
1.05000766309698
1.05000766250599
1.05000766186902
1.05000766119401
1.05000766048181
1.05000765937087
1.05000765860578
1.05000765782565
1.05000765702829
1.05000765621895
1.05000765540414
1.0500076545852
1.05000765376395
1.05000765294256
1.05000765212189
1.05000765130045
1.05000765048034
1.050007649658
1.05000764883852
1.0500076480193
1.05000764720418
1.05000764638731
1.05000764557603
1.0500076447702
1.05000764397013
1.05000764317446
1.05000764238085
1.05000764159633
1.05000764081888
1.05000764004306
1.05000763927301
1.05000765501886
1.05000765426383
1.05000765350891
1.05000765275694
1.05000765200351
1.05000765125006
1.05000765050433
1.05000765016285
1.05000764943151
1.05000764871093
1.05000764800177
1.05000764730896
1.05000764663017
1.05000764597091
1.05000764532713
1.05000764470128
1.05000764409444
1.05000764350344
1.0500076429255
1.05000764195924
1.0500076414108
1.05000764087321
1.0500076403458
1.05000763982881
1.0500076393291
1.05000763883954
1.05000763836439
1.05000763790416
1.05000763743671
1.05000763701843
1.05000763662245
1.05000763625398
1.05000763589173
1.05000763555157
1.05000763522283
1.05000763490768
1.0500076346399
1.05000763435129
1.05000763406486
1.05000763380455
1.05000763356333
1.05000763333699
1.05000763313377
1.05000763295601
1.05000763280354
1.05000763268018
1.05000763258752
1.050007632524
1.05000763248964
1.05000763248072
1.05000763249514
1.05000763253001
1.05000763258975
1.05000763266867
1.05000763277016
1.05000763289006
1.05000763302421
1.05000763317757
1.05000763334573
1.05000763353703
1.05000763374931
1.05000763398006
1.05000763422942
1.05000763449507
1.05000763477634
1.05000763507412
1.05000763537811
1.05000763569767
1.05000763603452
1.05000763637276
1.05000763668731
1.05000763704931
1.05000763742418
1.05000763781418
1.05000763822342
1.05000763864259
1.05000763908953
1.05000763956214
1.05000764008541
1.05000764060466
1.0500076411343
1.05000764168184
1.05000764224072
1.05000764281617
1.05000764340413
1.05000764400289
1.05000764461469
1.05000764563851
1.05000764627635
1.0500076469234
1.0500076475838
1.05000764825862
1.05000764894605
1.05000764964582
1.05000765035764
1.05000765108007
1.05000765181278
1.05000765254462
1.05000765288311
1.05000765362559
1.05000765436761
1.05000765510183
1.05000765583462
1.05000765655828
1.0500076572781
1.05000765799186
1.05000765870498
1.05000765941431
1.05000766012256
1.05000766083395
1.05000766154929
1.05000766226917
1.05000766299613
1.05000766372796
1.0500076644671
1.05000766521396
1.05000766596662
1.0500076667259
1.05000766748725
1.05000766825282
1.05000766902311
1.05000766979249
1.05000767056401
1.05000767133409
1.05000767210164
1.0500076728624
1.05000767361684
1.05000767435589
1.05000767507456
1.05000767576633
1.05000767642691
1.05000767705282
1.05000767803682
1.05000767857285
1.05000767905487
1.05000767948157
1.05000767984727
1.05000768014663
1.05000768037138
1.05000768052525
1.05000768060618
1.0500076806178
1.05000768056267
1.05000768005043
1.05000767988778
1.05000767968858
1.05000767945183
1.05000767918625
1.0500076788894
1.05000767855879
1.05000767818975
1.05000767777846
1.0500076773129
1.05000767678997
1.05000767620319
1.05000767554203
1.05000767480623
1.05000767399772
1.05000767311875
1.05000767218248
1.05000767119892
1.05000767018887
1.05000766916864
1.05000766816206
1.05000766719323
1.05000766628489
1.05000766545607
1.05000766472512
1.0500076641033
1.05000766360113
1.05000766321747
1.05000766294719
1.05000766278471
1.05000766271171
1.05000766271261
1.05000766276305
1.05000766283718
1.05000766290326
1.05000766292933
1.05000766287877
1.05000766272137
1.05000766242149
1.05000766195258
1.05000766129015
1.05000766041565
1.05000765930794
1.05000765795961
1.05000765635818
1.05000765450581
1.05000765240552
1.05000765006672
1.05000764751163
1.050007644763
1.05000764184882
1.05000763880676
1.05000763567513
1.05000763249072
1.05000762929332
1.05000762612192
1.05000762300714
1.05000761997733
1.05000761705132
1.05000761424839
1.05000761157605
1.05000760904172
1.05000760664538
1.05000760438454
1.05000760226157
1.05000760026468
1.05000759838868
1.05000759662456
1.05000759496324
1.05000759339237
1.05000759190212
1.05000759047772
1.05000758910947
1.05000758778008
1.05000758647885
1.05000758518284
1.05000758387096
1.0500075825158
1.05000758110325
1.05000757961222
1.0500075780376
1.05000757637787
1.05000757463875
1.05000757282579
1.05000757095401
1.05000756904121
1.05000756710826
1.05000756518592
1.05000756330388
1.05000756149418
1.05000755978849
1.05000755822259
1.05000755682103
1.05000755561147
1.05000755460898
1.05000755382957
1.05000755327243
1.05000755293693
1.05000755281097
1.05000755287689
1.05000755310545
1.05000755346265
1.05000755391752
1.05000755445837
1.05000755498957
1.05000755550216
1.05000755596593
1.05000755634563
1.05000755661804
1.05000755676162
1.05000755676789
1.05000755663737
1.05000755637961
1.0500075560111
1.05000755555441
1.05000755504042
1.05000755450846
1.05000755399446
1.05000755354334
1.05000755319068
1.05000755297881
1.05000755293756
1.05000755309432
1.05000755346594
1.05000755406964
1.05000755490581
1.05000755597482
1.05000755726345
1.05000755875661
1.05000756042921
1.05000756225458
1.05000756419948
1.05000756623121
1.05000756831553
1.05000757041867
1.05000757251268
1.05000757457144
1.05000757657488
1.05000757850649
1.05000758035475
1.05000758211292
1.05000758377969
1.05000758535947
1.05000758686483
1.0500075883148
1.05000758973238
1.05000759114052
1.05000759256022
1.05000759400835
1.05000759550032
1.05000759705053
1.05000759867365
1.05000760038187
1.0500076021883
1.05000760410176
1.05000760613167
1.0500076082834
1.05000761056044
1.05000761296564
1.05000761549896
1.05000761815813
1.05000762093353
1.05000762382133
1.05000762680418
1.05000762986378
1.05000763297628
1.05000763611788
1.0500076392493
1.05000764233899
1.05000764534964
1.05000764824479
1.05000765099066
1.05000765355583
1.05000765591512
1.05000765804872
1.05000765994282
1.05000766158991
1.05000766298774
1.05000766414298
1.05000766506626
1.05000766577207
1.05000766628014
1.0500076666143
1.05000766680305
1.05000766687587
1.05000766686957
1.05000766681517
1.05000766675039
1.05000766670285
1.05000766670268
1.05000766676995
1.05000766692529
1.05000766718387
1.05000766755458
1.05000766804231
1.05000766864397
1.05000766934854
1.05000767014445
1.05000767100988
1.05000767192755
1.05000767287108
1.05000767381564
1.05000767474086
1.05000767562952
1.05000767646181
1.05000767723101
1.05000767792545
1.05000767854719
1.05000767909126
1.05000767956391
1.0500076799693
1.05000768031629
1.05000768060482
1.05000768084272
1.05000768103062
1.05000768117129
1.05000768126405
1.05000768130711
1.0500076813
1.0500076812379
1.05000768151201
1.0500076813204
1.05000768105605
1.05000768072105
1.05000768031778
1.05000767984306
1.05000767930733
1.05000767871571
1.05000767807639
1.0500076773987
1.05000767668323
1.05000767553966
1.05000767477077
1.05000767398907
1.05000767319208
1.05000767238505
1.05000767157479
1.05000767076289
1.05000766995098
1.05000766914141
1.0500076683348
1.05000766752981
1.05000766672708
1.05000766592313
1.0500076651228
1.05000766432387
1.05000766352795
1.05000766272977
1.05000766193741
1.05000766115059
1.0500076603688
1.05000765959104
1.05000765881587
1.05000765804878
1.05000765728842
1.05000765652931
1.05000765577469
1.05000767169354
1.05000767095392
1.05000767021399
1.05000766947781
1.0500076687401
1.05000766800287
1.05000766727392
1.05000766697139
1.05000766625577
1.05000766554842
1.05000766485212
1.05000766417055
1.05000766350256
1.05000766285224
1.05000766221667
1.05000766159852
1.05000766099864
1.05000766041434
1.05000765984251
1.05000765886019
1.0500076583222
1.05000765779459
1.05000765727779
1.05000765677295
1.05000765628609
1.050007655809
1.05000765534596
1.05000765490014
1.0500076544891
1.05000765408096
1.05000765369542
1.05000765333401
1.05000765297778
1.050007652644
1.05000765232024
1.05000765200939
1.05000765170116
1.05000765141626
1.05000765113436
1.05000765087759
1.05000765064123
1.05000765041682
1.05000765021786
1.05000765004365
1.05000764989385
1.05000764977326
1.0500076496849
1.05000764962308
1.05000764958747
1.0500076495797
1.05000764959482
1.05000764963077
1.05000764969149
1.05000764977142
1.05000764987482
1.0500076499957
1.05000765013033
1.05000765028417
1.0500076504533
1.05000765064352
1.05000765085287
1.0500076510802
1.05000765132561
1.05000765158597
1.05000765186133
1.0500076521541
1.0500076524505
1.0500076527635
1.05000765309265
1.05000765342399
1.05000765377594
1.05000765413083
1.05000765449805
1.05000765487963
1.05000765528035
1.05000765568994
1.05000765612474
1.05000765658538
1.05000765705077
1.05000765755403
1.05000765807028
1.05000765860387
1.05000765915017
1.05000765971387
1.05000766029189
1.05000766088115
1.05000766148511
1.05000766252513
1.05000766315763
1.0500076637988
1.05000766445256
1.05000766511996
1.05000766579963
1.05000766649039
1.05000766719223
1.05000766790315
1.05000766862397
1.0500076693415
1.0500076696413
1.05000767036902
1.05000767109442
1.05000767181249
1.05000767252942
1.05000767323743
1.050007673941
1.05000767463839
1.05000767533509
1.05000767602753
1.05000767671902
1.05000767741203
1.05000767810904
1.05000767881065
1.05000767951955
1.05000768023288
1.05000768095366
1.05000768168255
1.05000768241749
1.05000768316077
1.05000768390521
1.05000768465596
1.05000768541327
1.05000768617178
1.05000768693452
1.05000768769896
1.05000768846389
1.05000768922481