/*--------------------------------*- C++ -*----------------------------------*\
| =========                 |                                                 |
| \\      /  F ield         | foam-extend: Open Source CFD                    |
|  \\    /   O peration     | Version:     4.0                                |
|   \\  /    A nd           | Web:         http://www.foam-extend.org         |
|    \\/     M anipulation  |                                                 |
\*---------------------------------------------------------------------------*/
FoamFile
{
    version     2.0;
    format      ascii;
    class       volScalarField;
    location    "10";
    object      T;
}
// * * * * * * * * * * * * * * * * * * * * * * * * * * * * * * * * * * * * * //

dimensions      [0 0 0 1 0 0 0];

internalField   nonuniform List<scalar> 
160000
(
1.05000030943923
1.05000044599233
1.05000069531363
1.05000107527161
1.05000048739342
1.05000032467479
1.05000104256451
1.05000080700877
1.0500005559471
1.05000049740232
1.05000069675598
1.05000044973996
1.05000029545233
1.04999989355899
1.05000088356247
1.05000010550863
1.05000002195338
1.05000056287334
1.05000077694402
1.05000055623558
1.05000136054903
1.05000055833338
1.05000108711866
1.05000088316381
1.05000062766782
1.05000070548358
1.05000062348356
1.05000071878784
1.05000022325145
1.0500006192371
1.05000062559096
1.05000058335399
1.05000078209734
1.05000061576232
1.05000055934448
1.05000057954523
1.05000058442942
1.05000045217072
1.05000055353727
1.05000033722106
1.04999938060358
1.05000138324859
1.04999983995367
1.05000077969573
1.05000054055399
1.05000063130324
1.05000037059521
1.05000068078767
1.0499993691276
1.05000075701584
1.05000033243117
1.05000080043128
1.05000063484246
1.05000051141464
1.05000074344944
1.05000049860943
1.05000024747633
1.0500004164458
1.05000020598416
1.05000036725365
1.05000047125928
1.05000046049604
1.05000000936269
1.05000038680871
1.05000048572428
1.05000047149463
1.05000044308554
1.05000047929108
1.05000047466917
1.05000063342261
1.05000085301111
1.04999992240847
1.05000069063197
1.05000079748839
1.05000083254385
1.05000067857217
1.05000067227946
1.05000065252549
1.05000076962549
1.05000069579864
1.05000172775613
1.05000196275005
1.04999867373073
1.05000177959479
1.05000098646984
1.05000034787058
1.05000042830442
1.05000047191031
1.05000023278325
1.05000028563751
1.05000103930124
1.05000062488546
1.05000102698689
1.05000093032569
1.05000149207436
1.05000081892311
1.05000064823852
1.05000070807022
1.05000095773994
1.05000090110988
1.05000094813529
1.05000013627
1.05000037270119
1.05000066750887
1.05000026864939
1.05000005000169
1.05000035712105
1.05000006635229
1.04999993111724
1.04999994229557
1.05000022487145
1.05000050523371
1.05000000996996
1.0500003545638
1.05000040132218
1.05000028142383
1.05000056084674
1.05000032011072
1.05000006627415
1.05000052688264
1.05000031503591
1.04999861852888
1.05000055534272
1.05000057029474
1.0500005902903
1.05000042261933
1.05000062832609
1.05000090262383
1.05000110661319
1.04999886624985
1.05000015423397
1.05000094763453
1.05000054390919
1.05000052803707
1.05000045367052
1.05000046774817
1.05000034424015
1.05000036051799
1.05000037645205
1.04999986771964
1.05000045529156
1.05000052614301
1.04999995279572
1.05000014623223
1.05000049954977
1.05000040966899
1.05000055204887
1.05000095546808
1.05000027519213
1.05000096191532
1.0500008643261
1.05000077448541
1.05000066230611
1.05000025030679
1.05000123121277
1.050002147677
1.04999606493632
1.05000192145915
1.05000130932746
1.05000000409498
1.05000027607034
1.05000044340911
1.05000000266921
1.05000028093159
1.05000020268548
1.0500003260484
1.05000040515323
1.05000031602304
1.0500002456957
1.05000045447796
1.05000092248739
1.05000127054345
1.05000106007922
1.0500004956954
1.05000072267906
1.05000059956027
1.05000077718363
1.05000061957335
1.05000069038365
1.05000036279059
1.05000081172462
1.05000047139924
1.050000691539
1.05000063905014
1.04999812464278
1.05000045057694
1.0500007529578
1.0500004872215
1.05000042529412
1.05000054309813
1.05000066409591
1.05000062278262
1.05000072585845
1.05000056494903
1.05000052943554
1.05000080797886
1.05000099281966
1.05000033102871
1.05000036843694
1.05000071314647
1.05000041768868
1.05000059172733
1.05000068731009
1.05000052553564
1.05000046385319
1.05000070856558
1.050000189294
1.05000068709915
1.05000002197959
1.05000042604473
1.05000038621045
1.05000038057703
1.05000032674907
1.04999840673205
1.05000019722408
1.04999972528107
1.04999925672654
1.04999956740722
1.04999991970138
1.05000011601258
1.05000032480874
1.05000037446147
1.0500005778653
1.05000102308298
1.05000098121823
1.05000117880987
1.05000128991101
1.05000091141658
1.05000112329102
1.05000124613605
1.050001127649
1.05000108483536
1.05000078701923
1.05000070649516
1.05000059653331
1.0500009449493
1.05000026212262
1.05000067591671
1.0500005268192
1.05000001862715
1.05000050510552
1.05000073130382
1.05000048720169
1.04999995592653
1.05000073123346
1.05000044733643
1.05000068914026
1.05000044861016
1.05000050978446
1.04999913968404
1.05000042370175
1.0500009364103
1.05000049777579
1.05000061316816
1.05000044744462
1.0500006176133
1.0500000865769
1.05000034519426
1.05000088842652
1.05000023088551
1.05000072286306
1.05000053714689
1.05000070158909
1.05000064697172
1.05000055374455
1.05000080159225
1.0500006303574
1.05000067958456
1.05000146915085
1.05000128312428
1.05000007134467
1.05000103968956
1.05000041962569
1.05000080945457
1.05000136447993
1.04999866392641
1.0500012729181
1.05000110966153
1.05000107842031
1.05000084794092
1.05000128919099
1.05000129734067
1.05000127613521
1.05000130089876
1.05000123465066
1.05000145091927
1.0500013081769
1.04999865624331
1.05000136245976
1.05000103785344
1.05000062227594
1.05000069850242
1.05000077257984
1.05000066986883
1.0500005838035
1.05000054310151
1.05000022639256
1.05000063607247
1.05000021337682
1.05000054315969
1.05000072273391
1.05000017206513
1.05000052008924
1.05000019854866
1.05000032797793
1.0500002261461
1.05000021717922
1.05000041609675
1.05000064734412
1.05000026695846
1.05000055882053
1.05000074416298
1.050000455249
1.05000081853526
1.05000049975627
1.05000072283338
1.05000035552694
1.05000070046178
1.05000043802094
1.05000051913916
1.0499996967789
1.05000039576385
1.05000047579768
1.05000041569289
1.05000053306681
1.05000086210657
1.05000101619563
1.04999780659913
1.05000113678796
1.04999959888613
1.0500008482106
1.05000061342311
1.05000080929581
1.05000041277891
1.05000042948219
1.05000071837599
1.05000021721299
1.05000069667232
1.05000112571709
1.04999838861044
1.05000086127306
1.05000102196756
1.05000033702413
1.05000043438514
1.0500008948107
1.05000049421839
1.05000073283145
1.05000081321446
1.05000086003838
1.05000066965674
1.05000069087366
1.05000103280825
1.05000090065939
1.04999666816911
1.05000065128898
1.05000068483098
1.05000071478855
1.05000044407288
1.05000067569397
1.05000105389355
1.05000013864906
1.05000066472169
1.05000086081352
1.05000085114468
1.04999961961273
1.05000118016554
1.05000055165066
1.05000065013388
1.05000196561032
1.05000103957904
1.05000027702655
1.05000091137667
1.05000075293845
1.05000058612076
1.04999855049593
1.0500004219827
1.05000090686645
1.05000014116587
1.05000035093509
1.04999971359718
1.05000047832138
1.05000060535784
1.04999981983213
1.05000063159248
1.05000012237357
1.05000029568423
1.0500003079403
1.05000050163227
1.05000071190009
1.05000083680378
1.05000071194503
1.05000055069089
1.0500006291458
1.05000036907833
1.05000058175953
1.05000044195361
1.05000361751687
1.05000030979477
1.05000079315221
1.05000037538438
1.05000030725357
1.05000039741736
1.05000076436694
1.05000074663256
1.05000047107127
1.05000053659601
1.05000141476392
1.05000088546695
1.0500006679058
1.0500005794204
1.05000079500146
1.05000053155558
1.05000031821669
1.04999981178301
1.05000007208146
1.04999995945612
1.04999996183357
1.0500004943489
1.05000094377386
1.05000038284934
1.05000130877881
1.05000070780926
1.05000092955989
1.05000083417775
1.05000058224596
1.05000048408733
1.05000069113013
1.05000068184622
1.05000018721164
1.05000066948449
1.05000056977359
1.05000047959831
1.05000089259437
1.05000066288568
1.05000068461763
1.0500008131813
1.05000068193311
1.05000026288415
1.05000072357041
1.05000050442484
1.04999942122661
1.05000108037526
1.04999995057226
1.05000097724458
1.05000057970311
1.050000676393
1.05000069924155
1.05000082531827
1.04999914500802
1.0500009044131
1.0500006667155
1.05000078421344
1.05000061173171
1.05000045044845
1.05000062570408
1.05000048019086
1.05000041096337
1.05000049486125
1.05000066493093
1.05000050747502
1.0500006385969
1.05000057801814
1.05000005009269
1.05000045961954
1.05000051819412
1.05000040196036
1.05000047245113
1.05000038504632
1.05000033050372
1.05000073881502
1.05000077121144
1.05000008898194
1.05000062755697
1.05000066063464
1.05000070450691
1.05000057353875
1.0500006018629
1.05000035871108
1.05000075355584
1.05000066130969
1.05000162398933
1.05000176848911
1.04999938237662
1.05000165856139
1.05000089076196
1.0500003192403
1.05000039910671
1.05000055539187
1.05000023673552
1.05000036647018
1.05000105103518
1.05000064854396
1.0500009810974
1.05000102351743
1.05000119398595
1.05000091939005
1.05000054254916
1.05000095049387
1.05000105344503
1.05000099663616
1.05000084429979
1.05000021582851
1.05000063060771
1.05000055037519
1.05000034327465
1.05000016241807
1.05000048763715
1.05000028383513
1.05000081653581
1.05000018054384
1.05000037081279
1.05000069551541
1.05000023603612
1.05000046864899
1.05000048688322
1.05000039813391
1.05000062740641
1.05000027977706
1.05000010589595
1.05000061773019
1.05000054875537
1.04999767859824
1.05000088156042
1.05000064317664
1.05000058208358
1.05000046854833
1.05000064789943
1.05000100199372
1.05000138581687
1.0499993791767
1.05000007536613
1.05000111194178
1.05000063906179
1.05000066056536
1.05000062065031
1.05000066867215
1.05000025181621
1.05000053037484
1.05000039904159
1.04999960470339
1.05000030161489
1.05000047948833
1.04999988658519
1.05000010420088
1.05000040453751
1.05000040159961
1.05000049323117
1.05000092192118
1.0500004075773
1.05000093930869
1.05000078151399
1.05000072950127
1.05000071075437
1.04999955375656
1.05000129664274
1.05000244988665
1.04999697311429
1.05000209390606
1.0500014095682
1.05000003127424
1.05000035620865
1.05000052315895
1.05000009387303
1.05000010233079
1.05000027177164
1.05000041128436
1.05000037928276
1.05000032890097
1.05000031437397
1.05000016579751
1.05000056944038
1.05000129367193
1.05000065868329
1.05000034074622
1.05000063188292
1.05000062317163
1.05000058823851
1.05000061904331
1.05000073034586
1.05000032277662
1.05000084578395
1.05000064917222
1.05000099823034
1.05000133242997
1.04999808145378
1.05000096102455
1.05000110989509
1.0500006015145
1.05000054952435
1.05000066364841
1.0500008140848
1.05000065191633
1.05000079000405
1.05000052260697
1.05000048926533
1.05000051275574
1.0500010141161
1.05000030282804
1.05000012667267
1.05000054749972
1.05000023807433
1.05000053607051
1.05000050233849
1.05000039126169
1.05000035081499
1.05000051675066
1.05000015325927
1.0500006052861
1.04999979970208
1.05000034835833
1.05000032015495
1.05000040865044
1.05000035146333
1.04999870559124
1.05000039958535
1.04999994080052
1.0499985978482
1.04999978390477
1.05000014288691
1.05000011994785
1.05000044775412
1.05000047721899
1.05000073365045
1.05000112645947
1.05000140361101
1.05000113619869
1.05000125508458
1.0500008560123
1.05000107834043
1.0500010948439
1.05000103886849
1.05000091880757
1.05000090135024
1.05000060684866
1.0500004806926
1.05000075859872
1.0500002134753
1.05000038647011
1.0500003448401
1.05000000548968
1.05000029778601
1.05000035483768
1.05000036708199
1.04999973659095
1.05000061323513
1.05000016676997
1.05000051780467
1.0500003265436
1.05000041453708
1.04999708128521
1.05000034969809
1.0500008343528
1.05000043514072
1.05000059426893
1.0500005020397
1.05000069256784
1.05000023544294
1.05000034256618
1.05000091416003
1.05000023914648
1.05000085712832
1.05000045967605
1.05000051723471
1.05000057123869
1.05000034203498
1.05000072964748
1.05000039720114
1.05000052888934
1.05000124453169
1.05000106386214
1.05000020552172
1.05000101190542
1.05000040894126
1.05000084148884
1.05000108658229
1.04999923810681
1.05000134163255
1.05000116157542
1.0500008886805
1.05000081515659
1.05000111733613
1.05000126236716
1.05000125200335
1.05000121483913
1.05000111036711
1.05000146859548
1.05000151064533
1.04999855965353
1.0500015180067
1.05000108978838
1.05000071966352
1.05000078948193
1.05000068664925
1.05000062278514
1.05000043045915
1.05000050696312
1.05000002480429
1.05000056970928
1.05000004569818
1.05000060811347
1.05000062073667
1.04999991358628
1.05000033475385
1.05000007536692
1.05000026974216
1.05000023800184
1.05000025231883
1.05000051927709
1.05000068104974
1.05000040282991
1.05000069759198
1.05000059613117
1.05000062164991
1.0500008874358
1.05000052884227
1.05000081612851
1.05000037222969
1.0500007131917
1.05000043337115
1.05000054075743
1.04999997166408
1.05000032939439
1.05000034863583
1.05000035924484
1.0500002901093
1.05000083911962
1.05000126779201
1.04999835063712
1.05000149462301
1.0499993692309
1.05000093980207
1.05000062093829
1.05000078215879
1.05000035716286
1.05000032875297
1.0500006570134
1.05000025183804
1.05000046731734
1.05000128492254
1.04999870604473
1.05000131882667
1.05000099027025
1.05000023842393
1.05000027514949
1.05000066446329
1.05000023052403
1.05000080605058
1.05000056505099
1.05000062114018
1.05000060856636
1.05000051359218
1.05000096612743
1.05000089733556
1.04999744018707
1.05000067167166
1.05000072996755
1.05000085705146
1.05000058417796
1.0500007807263
1.05000120023855
1.05000038572282
1.0500008044926
1.05000095369077
1.05000091950605
1.05000004124533
1.05000009970682
1.0500006958811
1.05000076605398
1.05000214791765
1.05000123108866
1.05000050850733
1.05000104987905
1.05000099064081
1.05000089641271
1.04999805865128
1.05000102379547
1.05000106837866
1.0500002923788
1.05000045754951
1.05000006469298
1.05000047789605
1.05000059240105
1.05000012045947
1.05000048373536
1.05000006970135
1.05000038975466
1.05000032274511
1.05000042086516
1.05000040043678
1.05000076957588
1.05000059366962
1.05000027688341
1.05000061089949
1.05000035264742
1.05000047604118
1.05000037933435
1.05000132171615
1.05000023899122
1.05000069039198
1.05000032136771
1.05000029651843
1.05000038029219
1.05000076055205
1.05000036604675
1.0500004674972
1.05000058093538
1.05000151890542
1.05000085142114
1.05000068323336
1.05000061881345
1.0500007933879
1.05000052676199
1.05000035528013
1.04999985945424
1.04999941066919
1.04999997296028
1.04999997849194
1.05000040391257
1.05000096577133
1.05000027439997
1.0500011177209
1.05000064389946
1.05000080879833
1.05000079498787
1.05000057253341
1.0500003434914
1.05000070471011
1.05000067250119
1.05000024948873
1.0500007098687
1.05000055229173
1.05000045703967
1.05000091645421
1.05000070848886
1.05000075326984
1.05000096876078
1.05000075724162
1.05000025041566
1.05000084144771
1.05000061309245
1.04999960549349
1.05000106739898
1.05000006742255
1.05000103732858
1.05000063443498
1.05000072967348
1.05000089169
1.05000091873782
1.04999929074546
1.05000102460263
1.05000085733322
1.05000078060042
1.05000063262934
1.05000043179781
1.05000052078224
1.05000050660127
1.05000049527193
1.05000054648803
1.050001038249
1.05000054845851
1.05000071854327
1.05000062236432
1.05000010698357
1.05000049268846
1.05000051671796
1.05000036356702
1.05000046762689
1.0500003615976
1.05000024556997
1.05000075810827
1.05000066174186
1.05000034719147
1.05000055740202
1.05000056223942
1.05000054089393
1.05000051813577
1.05000056050509
1.05000016651174
1.0500007053816
1.05000059552061
1.05000133644945
1.05000152375194
1.04999968118025
1.0500014772503
1.05000081416198
1.05000037105096
1.05000039931729
1.05000061825418
1.05000030528316
1.05000050110852
1.050001026277
1.05000066560034
1.05000095957996
1.05000097778838
1.05000098588184
1.05000096346133
1.05000048549255
1.05000102240091
1.05000102750137
1.05000099120056
1.05000072597035
1.0500003631565
1.05000074571631
1.05000046117241
1.05000042756731
1.05000028772169
1.05000054226009
1.05000042160553
1.05000152627315
1.05000038738046
1.05000049242131
1.05000077424218
1.05000042480378
1.05000055567964
1.05000053126472
1.05000044223862
1.0500006636086
1.0500003174132
1.05000019546037
1.0500006947441
1.05000073442596
1.04999753234589
1.0500010759029
1.05000069517069
1.05000058271271
1.05000053160842
1.05000067543053
1.05000105093811
1.05000149129381
1.04999983492011
1.05000014865343
1.05000124678507
1.05000069638551
1.05000075544563
1.05000074784946
1.0500007881387
1.05000026643552
1.05000059713083
1.05000045346335
1.0499995517436
1.05000025742119
1.05000040879169
1.04999989952601
1.05000008986845
1.05000037785627
1.05000039697793
1.05000042757841
1.05000083234568
1.05000043714706
1.05000085289979
1.05000071056612
1.05000068368097
1.05000075092889
1.04999924387022
1.05000128289934
1.05000243657132
1.0499977527069
1.05000201591522
1.0500013895968
1.05000008818219
1.05000047936947
1.05000063045502
1.05000024265108
1.05000009516876
1.05000038600654
1.05000047764956
1.05000041568632
1.0500003895028
1.05000038339803
1.0500000873224
1.05000039382505
1.05000098563641
1.05000045017579
1.05000025811385
1.0500005415078
1.05000067338538
1.05000045330796
1.05000056481561
1.05000076151701
1.05000033499211
1.05000085445863
1.05000072497507
1.05000117712273
1.05000177915017
1.04999839788868
1.0500012499765
1.05000128605074
1.05000070068556
1.05000064629676
1.0500007404611
1.05000087610917
1.05000064476245
1.05000073954198
1.05000047582444
1.05000044040231
1.05000036292816
1.05000097144284
1.05000030419541
1.04999997579541
1.05000044532846
1.05000016998433
1.05000055199396
1.05000041680329
1.05000033361963
1.05000030260386
1.05000041730431
1.05000016660673
1.05000054580228
1.04999976132536
1.05000035076021
1.0500003115985
1.05000045603759
1.05000042319402
1.04999911206403
1.05000059627359
1.05000028863975
1.04999851085277
1.05000013540626
1.05000042777217
1.05000022791378
1.05000056504442
1.05000059616366
1.05000079968436
1.05000108411642
1.05000158261825
1.05000099881496
1.0500010879199
1.05000070999543
1.05000093486393
1.0500008710464
1.05000086043568
1.05000073996542
1.0500009175076
1.05000049260513
1.05000042370392
1.05000065221879
1.05000017617871
1.05000024063835
1.05000025625755
1.05000006176317
1.05000019533282
1.05000013839468
1.05000024417435
1.04999970063619
1.05000054019482
1.05000001748655
1.05000039671125
1.05000028728917
1.05000035298479
1.04999656340796
1.05000029011118
1.05000060082429
1.05000034466151
1.05000053865173
1.05000048766774
1.05000066929582
1.0500003752901
1.05000033360507
1.05000089691408
1.05000024848434
1.05000087614795
1.05000041559425
1.05000039848569
1.050000547542
1.05000027341209
1.05000068967304
1.05000033335699
1.05000047429413
1.05000106717612
1.05000083374332
1.05000030237942
1.05000098134074
1.0500004730215
1.05000084572868
1.05000080482974
1.04999961273771
1.05000130449505
1.05000111017159
1.05000073319843
1.05000072804474
1.05000093368588
1.05000111957601
1.05000110854873
1.05000101905651
1.05000088939517
1.05000133556775
1.05000149764018
1.0499987626233
1.05000142970428
1.05000103360612
1.05000069551172
1.05000081475602
1.05000055404951
1.0500005712076
1.05000031544453
1.05000043309138
1.04999996398773
1.05000047877059
1.04999995568289
1.05000065472988
1.05000050275923
1.04999982372967
1.05000023375395
1.05000004528894
1.05000024298069
1.05000031768681
1.0500002894117
1.05000055533224
1.05000067135246
1.05000046472704
1.05000072656596
1.05000045303214
1.05000065232819
1.05000086083824
1.05000050726156
1.05000083137143
1.050000350992
1.05000069649313
1.05000043723451
1.05000054414181
1.05000009627174
1.05000032950464
1.05000029698254
1.05000037190859
1.0500001027486
1.05000081493849
1.05000138285281
1.04999888944544
1.05000163357514
1.04999940624834
1.05000099192201
1.0500006393923
1.05000075715139
1.0500003523748
1.05000037090728
1.05000061864579
1.05000035858489
1.05000035843833
1.05000131549795
1.04999905725139
1.05000166319961
1.05000089837193
1.05000022043466
1.05000022768034
1.05000045040831
1.05000009221343
1.05000080737617
1.05000038737552
1.05000045323547
1.0500005328904
1.05000043736065
1.05000082608898
1.05000083091015
1.04999805060216
1.05000063821341
1.05000071546043
1.05000087247344
1.05000063596248
1.05000081654381
1.05000120145967
1.05000046198294
1.05000085010293
1.05000096405439
1.05000095909326
1.0500003101498
1.04999934634274
1.05000084089919
1.05000087166755
1.05000193385903
1.05000128135522
1.05000067457469
1.05000108578439
1.05000111755009
1.05000114418574
1.04999823079048
1.05000129041712
1.05000122241568
1.05000046380811
1.05000058695608
1.0500003130866
1.05000055779413
1.0500006669384
1.05000030924308
1.05000049086483
1.05000015409617
1.0500004854237
1.05000036408017
1.05000041244103
1.05000020929294
1.05000070447976
1.0500005001512
1.05000014473518
1.05000053600998
1.05000034362923
1.05000038184362
1.05000032440403
1.04999983841542
1.05000020549809
1.05000049107417
1.05000028105654
1.05000027930001
1.05000036556504
1.05000075337612
1.04999991977064
1.05000047217108
1.05000059891692
1.050001545247
1.05000078300045
1.05000068172185
1.05000066076406
1.05000077419964
1.0500005109083
1.05000041404221
1.04999996285602
1.04999873153086
1.05000005076853
1.05000003279942
1.05000031036254
1.05000097680354
1.05000017605407
1.05000085830481
1.05000058254851
1.05000069613646
1.05000075628753
1.05000057923325
1.05000021267191
1.05000072488551
1.05000067068954
1.05000032590515
1.05000074820344
1.05000053683858
1.05000044685141
1.05000091307873
1.05000074963515
1.05000081015449
1.05000110820118
1.0500008274623
1.05000025877004
1.05000096326037
1.05000072299881
1.04999982391171
1.05000107368343
1.05000020259675
1.0500010756842
1.05000069364054
1.05000078953719
1.05000105351588
1.05000100913641
1.04999953161965
1.05000114445101
1.05000105049496
1.05000078080213
1.0500006743928
1.05000044635956
1.05000040273106
1.0500005538398
1.05000057910124
1.05000058149475
1.05000141398545
1.05000055657252
1.05000078342195
1.05000065001796
1.05000016348865
1.05000052789315
1.05000051396102
1.05000033931841
1.05000047049297
1.05000036051659
1.05000016791739
1.05000077328757
1.05000053175405
1.05000065839804
1.05000047920706
1.05000046466304
1.05000036693854
1.050000473104
1.05000053222924
1.0499999845642
1.05000065179379
1.05000052389758
1.05000095844811
1.0500012511113
1.04999996912524
1.05000126350463
1.0500007124224
1.05000042224013
1.05000038344017
1.05000066194137
1.05000036692732
1.05000066207737
1.05000098619177
1.05000067926083
1.05000093808133
1.05000095053159
1.05000078262369
1.05000101021471
1.05000044155793
1.0500010732114
1.05000096669891
1.05000096132228
1.05000056840178
1.05000053215756
1.0500007614786
1.05000034179828
1.0500005059785
1.05000041795185
1.0500005792012
1.05000054520391
1.05000219110431
1.05000062232523
1.05000062415718
1.05000085689392
1.05000063108451
1.05000066313717
1.05000058947107
1.05000049260495
1.05000071083436
1.05000038042349
1.05000029229394
1.05000076885294
1.0500009308644
1.0499975028239
1.05000126036292
1.05000074232451
1.05000057728077
1.05000060051437
1.05000070364163
1.0500010954187
1.05000157878815
1.05000031048052
1.05000026827363
1.05000139168743
1.05000075801996
1.05000086118313
1.05000088000204
1.05000091231158
1.05000029562864
1.05000066261576
1.05000051709141
1.04999953177871
1.05000024447142
1.05000032862912
1.04999993594131
1.05000009774834
1.05000037954795
1.05000042234686
1.05000035276739
1.05000074174727
1.050000468597
1.05000076167941
1.05000065453242
1.05000063256155
1.05000079758514
1.04999899427327
1.05000126015496
1.05000236701728
1.04999853946811
1.0500019014655
1.05000134766441
1.05000014840171
1.05000061064229
1.05000074101477
1.05000041898306
1.05000011486699
1.05000051725165
1.05000055374281
1.0500004768835
1.05000047096606
1.05000046881496
1.05000006402337
1.0500002504777
1.05000063634978
1.05000027315237
1.05000019002159
1.05000045154661
1.05000073799523
1.05000031882218
1.05000049863494
1.05000079055629
1.05000034996678
1.05000084610295
1.05000078258577
1.05000132945082
1.05000219468434
1.04999874907509
1.0500015100231
1.05000143958395
1.05000079135049
1.05000074590647
1.05000080544004
1.05000092349459
1.05000062266894
1.05000065369053
1.05000042582969
1.05000038322389
1.0500002366829
1.05000090603037
1.05000031357623
1.0499998299467
1.05000035404603
1.05000012679981
1.05000059261253
1.05000034051106
1.05000029295857
1.05000026802677
1.05000033064973
1.0500002084389
1.0500004982172
1.04999975028961
1.05000038040549
1.05000032772526
1.05000052568093
1.05000053999593
1.04999957721334
1.05000081789756
1.05000072235855
1.04999853802592
1.05000055889506
1.0500007589141
1.05000036714748
1.05000069273832
1.05000072759018
1.05000083773317
1.0500009727137
1.05000168511661
1.05000080468117
1.05000085196441
1.05000051867555
1.05000074949772
1.05000061101431
1.05000063838383
1.05000052744051
1.05000089600601
1.05000035886862
1.05000036711464
1.05000054811105
1.05000014913918
1.05000009250753
1.05000016184169
1.05000011445506
1.05000009618212
1.04999993033934
1.05000011149278
1.04999969090423
1.0500004678891
1.04999990522529
1.05000027964182
1.05000028613495
1.05000030913769
1.04999619260933
1.05000025420838
1.05000032120365
1.05000026451504
1.0500004855428
1.05000047022689
1.05000063947736
1.0500005512841
1.0500003276155
1.05000088199088
1.05000027236084
1.05000086748582
1.05000039566339
1.050000297206
1.05000054987302
1.05000026029575
1.05000066058897
1.05000035948718
1.05000043334589
1.05000084611222
1.050000627656
1.05000038943419
1.05000093031714
1.05000054206024
1.05000082433212
1.05000048722142
1.04999996742005
1.05000123350524
1.0500010155123
1.05000054428842
1.05000062427832
1.05000071622925
1.05000093808754
1.0500009208309
1.05000078595354
1.05000064965556
1.05000116624459
1.05000145368988
1.04999903589396
1.05000128502452
1.05000095591509
1.05000064910606
1.0500008309043
1.0500003986135
1.05000051553504
1.05000020747039
1.05000034580102
1.0499999101912
1.05000038078107
1.04999986946613
1.05000068815375
1.05000036986683
1.04999973574453
1.05000014896658
1.05000002544666
1.05000020956062
1.05000042132806
1.05000032645255
1.05000058523965
1.05000065014959
1.05000051861961
1.05000073867012
1.05000029720352
1.05000067175505
1.05000080287029
1.05000046812625
1.05000082749406
1.05000031759729
1.05000066426879
1.05000043012513
1.05000053285109
1.05000020121873
1.0500003317673
1.0500002344387
1.05000038417686
1.04999989374968
1.05000077831969
1.05000148538963
1.04999942841673
1.05000173512787
1.04999947598433
1.05000103877018
1.05000065310688
1.05000071868422
1.05000033676168
1.05000045607021
1.05000057249213
1.05000045845408
1.05000026140305
1.05000132313205
1.04999940694718
1.05000201535466
1.05000078180885
1.05000022540082
1.05000021050261
1.05000022056542
1.04999998471418
1.05000081581964
1.05000022720478
1.05000030230052
1.05000046778008
1.05000042031336
1.05000067050332
1.05000075483969
1.04999858032466
1.05000059570809
1.05000068200381
1.05000085196379
1.05000065715897
1.05000081930295
1.05000116054293
1.05000050964855
1.05000086107051
1.05000094347415
1.05000101236488
1.05000061174504
1.04999860088305
1.0500010215139
1.05000098573678
1.05000165142724
1.05000131775575
1.05000084591297
1.05000111388809
1.05000124058598
1.05000140017346
1.04999850625834
1.05000156425946
1.05000135282261
1.05000062965902
1.05000071645902
1.05000056859428
1.050000654236
1.05000074889222
1.05000052938069
1.05000052650269
1.05000026325219
1.05000061597576
1.05000043120926
1.05000044296749
1.05000003775531
1.05000066024637
1.05000042025968
1.05000005282063
1.05000045885425
1.05000033194005
1.05000028309751
1.05000026679023
1.04999843137545
1.05000017352622
1.05000022302234
1.05000023523976
1.05000026205666
1.05000036457578
1.05000073569223
1.04999945681826
1.05000048966608
1.05000056443856
1.05000142194662
1.05000066862898
1.05000064797512
1.05000069449021
1.0500007196517
1.05000047242757
1.05000049224122
1.0500001433786
1.04999816698028
1.05000021870916
1.05000013556148
1.05000022232453
1.05000095196624
1.05000011639976
1.05000052673248
1.05000049827495
1.0500006108887
1.05000072156733
1.0500006095052
1.0500001246013
1.0500007417282
1.05000068060625
1.05000042460982
1.05000077533929
1.05000053246557
1.05000045937245
1.05000085819686
1.05000077563738
1.05000083284315
1.0500011857887
1.05000087187854
1.05000030793783
1.05000105735217
1.05000080674234
1.05000007386695
1.05000113225881
1.05000034117021
1.05000105829599
1.05000074733275
1.05000084557986
1.05000113329691
1.0500010695721
1.04999988971473
1.05000123461996
1.05000118925155
1.05000078018843
1.05000073563227
1.05000050113335
1.05000029114778
1.05000062210727
1.0500006371737
1.05000058838604
1.0500017005144
1.0500005085212
1.05000080668159
1.05000064190212
1.05000021803754
1.05000055415689
1.05000050111137
1.05000034132265
1.05000047994233
1.0500003961279
1.05000012533953
1.05000077177359
1.05000039394716
1.05000098751456
1.05000040620304
1.05000039331207
1.0500002015056
1.05000045626349
1.05000052903575
1.04999985810872
1.05000059389136
1.05000045351345
1.05000049730074
1.05000096848644
1.05000015996796
1.05000102433002
1.05000059841807
1.05000047551505
1.05000036046792
1.05000067683737
1.05000042231231
1.05000083081865
1.0500009190302
1.05000068142655
1.05000091016918
1.05000089919175
1.05000061136443
1.05000103382029
1.05000041632367
1.05000106639028
1.05000085232525
1.05000089100203
1.05000039199704
1.05000072638439
1.05000063884042
1.05000021421091
1.05000057439231
1.05000054325129
1.05000058153486
1.05000062271889
1.05000261804417
1.05000085247833
1.0500007469511
1.05000091328188
1.05000083095031
1.05000077987636
1.05000065757661
1.05000054163241
1.0500007674095
1.05000048705407
1.05000040028051
1.05000083482948
1.05000111268591
1.04999774198078
1.05000139034144
1.05000077749197
1.05000056676367
1.05000066865293