/*--------------------------------*- C++ -*----------------------------------*\
| =========                 |                                                 |
| \\      /  F ield         | foam-extend: Open Source CFD                    |
|  \\    /   O peration     | Version:     4.0                                |
|   \\  /    A nd           | Web:         http://www.foam-extend.org         |
|    \\/     M anipulation  |                                                 |
\*---------------------------------------------------------------------------*/
FoamFile
{
    version     2.0;
    format      ascii;
    class       volScalarField;
    location    "10";
    object      T;
}
// * * * * * * * * * * * * * * * * * * * * * * * * * * * * * * * * * * * * * //

dimensions      [0 0 0 1 0 0 0];

internalField   nonuniform List<scalar> 
160000
(
1.04904414992733
1.05016961176684
1.0482960840898
1.04990740732926
1.05063412838985
1.05007429299376
1.04954487531539
1.05163849841839
1.04989890477958
1.04998635786918
1.05037616999033
1.04979914409036
1.05110369988528
1.04928462797302
1.05055677975331
1.05037537762671
1.04911966919213
1.05039741120407
1.05034171784727
1.04953854989569
1.05045447237944
1.04883910256039
1.05081994391592
1.04832123934379
1.05130804086552
1.04910637084208
1.05017474813831
1.04991547384428
1.0501370140504
1.05081569222358
1.04870774797363
1.05049777735514
1.04970735003239
1.04992874024902
1.05059076301299
1.04979901501749
1.0499537090133
1.05005260277529
1.05035077810857
1.05056470685687
1.05070062940436
1.04922343221373
1.05132975572813
1.0495004930542
1.05068833000405
1.05011894503742
1.05085564381736
1.04862194633014
1.05101899550977
1.04966669332251
1.05100187194578
1.0497066770806
1.05117844048592
1.0493517237954
1.05149189771027
1.04914040750112
1.05184487261851
1.04878151139045
1.05206939831469
1.04888082932021
1.05210244459289
1.04883520621965
1.05201407576275
1.04900119278434
1.05156759618287
1.04935211718868
1.0510613774291
1.0496043523979
1.05129330249628
1.05001809520061
1.05020159181166
1.0501480757434
1.04847280992153
1.05162115638678
1.04812177660176
1.05187678864327
1.04798132787218
1.05184057764024
1.04835626587832
1.05189723997364
1.04807381172056
1.05180258219068
1.04861004590769
1.05123718004602
1.04769635363303
1.05065312359517
1.05047216140947
1.04914248618122
1.0497481837317
1.05060700082332
1.05059854087637
1.04828291825075
1.0517346095912
1.04948039183556
1.05116151787344
1.04950910886913
1.0513019590959
1.04796431853287
1.05138543386109
1.04988840565471
1.05066279016924
1.04908260306463
1.05090797587355
1.05005614857364
1.04991294142377
1.05103022433685
1.04974978082874
1.05010499561862
1.05034687939247
1.0492175520627
1.05038699470573
1.05014755295956
1.04951562855362
1.05057326451442
1.0499228867436
1.05048653534555
1.04992085310336
1.05008738833837
1.04966630849643
1.04978318767026
1.05056911344841
1.04753048651084
1.05067934880159
1.04911728883991
1.05007755517496
1.04981830112863
1.05011804699011
1.05026480763778
1.05031580992786
1.0486731100627
1.0513988758655
1.04955862301524
1.05232090702171
1.04944069235666
1.05168358446124
1.0492698054868
1.04970027187775
1.0505535018647
1.04773709043486
1.05061446551879
1.05055866966983
1.04916332146352
1.04933300347448
1.04980352089599
1.04953769334135
1.05017750899118
1.04984729962074
1.04997591082214
1.05180820120806
1.04934800513252
1.05074635668339
1.04992305658719
1.04997320979638
1.05112727784073
1.04930988110841
1.05055501809733
1.04813089461356
1.05058932267124
1.04939198416305
1.05009236370101
1.04945397962092
1.04939765842765
1.05048258527429
1.05016977274151
1.05060773845605
1.04954328406226
1.05064144042973
1.04985697136784
1.05253494248203
1.04996971589754
1.05079514998014
1.04957476903614
1.0491896139484
1.05057873312222
1.04825170802403
1.05017867956117
1.0485838832218
1.05123714819978
1.0485603337186
1.05076991572941
1.04897777262193
1.05016884272234
1.05122538710648
1.04919442498274
1.05145457643891
1.04915615750474
1.0499061723005
1.04990011653221
1.0498410489394
1.04977085579134
1.04966563381199
1.04975426235724
1.04909229727142
1.05091396826084
1.04918775399335
1.05011608492921
1.04971596752008
1.05078642935364
1.0494089821211
1.05005349863311
1.04996009260109
1.05040703586973
1.04768441580143
1.05032274227953
1.05004742474025
1.04984600500833
1.04997761945103
1.04929679645391
1.05081741870647
1.04832177010881
1.05229204818044
1.0483140143207
1.05037858647339
1.04959611302069
1.05009457224489
1.04994403795618
1.04968520393524
1.0498608710512
1.05028087267289
1.04832755883031
1.05102459228431
1.04934490836025
1.0520606007957
1.04888813965726
1.05199428449227
1.04966835822363
1.05046754388949
1.05038394563724
1.048054059336
1.05097853628098
1.04749392574109
1.05017042792521
1.04936345774235
1.04979064739104
1.05026439321394
1.05059233115401
1.04885075002592
1.05107635074974
1.04933001444011
1.04995689093038
1.04985593270348
1.05072873689642
1.04836950490425
1.05047664330845
1.04905480322014
1.05054496700376
1.04850057662617
1.05221497272865
1.04782208484222
1.05103985588277
1.04789018556053
1.05079379520907
1.04921741349732
1.04974791237385
1.05092663815041
1.04938746245786
1.05033313186458
1.05027624083545
1.04894088227707
1.0503733733016
1.04898199203399
1.04946924682284
1.04965209618526
1.05013521311744
1.04968200801131
1.05018706196723
1.04998756851237
1.04939658128841
1.04942451773893
1.05074219835129
1.04830174543691
1.05109556218542
1.04884010787487
1.05160139690924
1.04929441684388
1.05219991424244
1.04865526760012
1.05094906342818
1.04948711586639
1.05045884274393
1.04957715896683
1.05105637590138
1.0493637837191
1.05036499593562
1.04924770137566
1.05017515880788
1.05051776813893
1.04957291639603
1.04965483030687
1.05053108921151
1.04852166088548
1.05042517344185
1.04931238097491
1.05006562217276
1.05006447091365
1.05011362406466
1.04978705569205
1.04940189556546
1.05066527871824
1.04977022210438
1.0504146013002
1.05024572623924
1.04938237805846
1.05188258672287
1.0479329004721
1.05270644317289
1.04896122074534
1.05044254987515
1.04852314916586
1.05055537818277
1.04940206089161
1.05052713693387
1.05073289496961
1.04985821023955
1.05077033490321
1.05017595480162
1.04888115144518
1.05161751060232
1.04901316831094
1.0501167484531
1.05057064467541
1.04963723733381
1.05147110830525
1.04953505890354
1.05022563047443
1.05055434174644
1.05044380783915
1.05011668829076
1.05043004799997
1.04829019542668
1.05045569826387
1.04807895381561
1.0523347297599
1.04848772873584
1.05021702509254
1.04930586143072
1.05006348878687
1.04916076994952
1.0507588174246
1.05054639068599
1.04899028832868
1.05132392184772
1.04873512037235
1.05015791450362
1.0501345114897
1.04977170914806
1.04943177483246
1.05305227185245
1.04927012402432
1.05011743242738
1.0493223612514
1.04991031006476
1.05042107278009
1.0495857669399
1.0508670088731
1.04932593965861
1.05073146401176
1.04879394340582
1.04998688550741
1.04956260781518
1.05052503836409
1.04987612829488
1.04967702290522
1.04946657038798
1.05010368861717
1.04979616212813
1.05001651958051
1.04979409469337
1.0488569836729
1.05005443738632
1.05004144631536
1.05035811495939
1.05003626165231
1.04983787961167
1.05049135704055
1.05020708610997
1.04864429227922
1.05060035254829
1.05000387252522
1.05038248533105
1.05010144636044
1.04987878391816
1.04981390324484
1.04998236997052
1.05061762529817
1.0494432880287
1.05064954550744
1.05039016994898
1.04963704089399
1.04974562755155
1.05030757572932
1.0500902225827
1.04933509245941
1.05021339912158
1.04931205419886
1.05007855217508
1.04857112482291
1.05056832897474
1.04763938413164
1.05132058244514
1.04906162644264
1.0497717774049
1.04921938382351
1.04956651230287
1.05068396314751
1.05034080670154
1.04947759364998
1.05219530114221
1.04984715439338
1.05005181219079
1.05058643408538
1.04971366170047
1.05204574317447
1.04919428831796
1.05058464337037
1.05044448031539
1.04884078911914
1.05041476863626
1.05038001134442
1.04928425309702
1.05059272684409
1.04804619253896
1.0508618782499
1.0489156613103
1.05158044027455
1.0490534761332
1.05016560206633
1.04993792646482
1.05016817287636
1.05084962669769
1.04865263801586
1.0506095799366
1.04964224046724
1.05003333488003
1.05061935492992
1.04932770676844
1.050524282717
1.04958601675376
1.05144361092514
1.04977860042657
1.05132186879104
1.04858964217458
1.05206279343363
1.04909387936494
1.05084146215788
1.04987229942665
1.05096364475836
1.04839708935464
1.05122791183685
1.04926131111929
1.05173204989041
1.04885689260154
1.05195257642423
1.04861315703451
1.05212150723799
1.04867733649021
1.05219128942436
1.04846108123879
1.05238643540734
1.04845456969304
1.05244998222589
1.04834774927711
1.05244258164355
1.04852623416343
1.0519153928944
1.04915249541214
1.05131706451679
1.04958882151791
1.05130586958184
1.05004107075901
1.05043212433693
1.05012793594129
1.04846394207341
1.0513028179396
1.04824916478411
1.05148702660266
1.04836869785095
1.05114618431219
1.04878834723731
1.05123230952632
1.04863359945971
1.05134486143264
1.04895108249815
1.05115186780686
1.04846282765076
1.05063685548327
1.05058672035376
1.04846131877297
1.05050112171124
1.04969535318371
1.05071552386906
1.04823634312466
1.05243474837638
1.04915642024394
1.05191557904531
1.04943315348465
1.0513230305549
1.04783121390033
1.05138468515275
1.04987123875156
1.05074832256425
1.04834480067048
1.05100472884358
1.05002413738802
1.04991359016832
1.05117337950811
1.04972341964769
1.05022976198552
1.05039672341734
1.04904868885623
1.05064950891203
1.04960500624075
1.05067160679126
1.04953718093546
1.05117997553092
1.04941991684593
1.05116638323201
1.04919200422302
1.05072691031054
1.04913042512914
1.05059368379752
1.04778131894754
1.05068304151824
1.04989790326493
1.04987224448662
1.0507453782879
1.04971256048015
1.05091321947279
1.05027007972923
1.04868008729459
1.05143218889926
1.04956716515852
1.05269167722073
1.04943349505136
1.05192856050035
1.04931089911579
1.04946543607787
1.05056361019765
1.04774278725329
1.05060809233928
1.05058328971782
1.04867988873957
1.04966559936773
1.04886814803911
1.05063735742627
1.04909676877628
1.04994569176891
1.04997244998574
1.05189476640836
1.0493231681024
1.05075198924227
1.04992656772119
1.04997341638527
1.05117465267553
1.04921305688027
1.05059334461074
1.04787344342288
1.05062812777022
1.04929221581872
1.05045468117683
1.04928172641415
1.04946282466033
1.05088144271313
1.04995129514561
1.05128835539916
1.04940491290192
1.05067600311631
1.04985692063529
1.0523321777726
1.05000493891966
1.0506602291148
1.04979781812084
1.04918203823176
1.05051693568425
1.04894017115232
1.04976678294436
1.05001622292043
1.05042992750002
1.04988911809814
1.05002561698361
1.04958632122958
1.0500691329248
1.05158187250967
1.04878984843042
1.05168904592758
1.04916550334188
1.04963017895802
1.05025650150496
1.048581495056
1.05086826917406
1.04868607648559
1.05010166794509
1.04904607430738
1.05096101872839
1.049347887327
1.04967305658399
1.05047811023784
1.04988640065815
1.05024398311943
1.04980050144127
1.05026295181585
1.05043583143002
1.0476738826989
1.05035460400832
1.04961768377783
1.05055658816423
1.04966327071595
1.04941123417497
1.05080844561891
1.0483809402066
1.05196377414047
1.04836013292546
1.05038557013159
1.04966185516605
1.04979218855465
1.05010840366964
1.04881502363885
1.05000165103565
1.05030078336667
1.04831956239553
1.05101559091481
1.04934758056513
1.05210460817146
1.04911179078343
1.05198927498507
1.04969116944527
1.05045596914581
1.0504325582611
1.04802952205166
1.05099753306784
1.04744797413466
1.05018130147837
1.04936753176587
1.04960554384238
1.05120131892938
1.05029457215953
1.05020376136384
1.05032712065296
1.05054790080044
1.04937510060136
1.050242439353
1.0507194068111
1.04929126541549
1.05044437118704
1.04923039239677
1.0505431303152
1.04854147957719
1.05207200869803
1.04796876582663
1.05092766394609
1.04823455420487
1.05077733427187
1.04920953911955
1.04993874144607
1.0509752752797
1.04889164880234
1.05048576976728
1.04989954228426
1.05025217758906
1.04969229199822
1.0492894778173
1.04912600686041
1.05068217016042
1.04920693716833
1.05074875799722
1.04965889815079
1.05055690261796
1.04906134719396
1.04963492558452
1.05070441898568
1.04817144853509
1.05139503545053
1.04857841684665
1.05172573958736
1.04921897386456
1.05260745438305
1.04852007797064
1.05145424769763
1.04887351076352
1.0514780123777
1.04871501251215
1.05189319376981
1.04905897932646
1.05099798320686
1.04898556525161
1.05021362509958
1.05054777651787
1.04936937666543
1.0502872230061
1.05042380777271
1.0498522877455
1.05009518827012
1.04981928101762
1.05006567975726
1.05001213038169
1.05110843106205
1.04958394372691
1.04947741803414
1.05101717032212
1.04960279474873
1.05046085948715
1.05025403962224
1.04933622890617
1.05201230498996
1.04775781068725
1.0529035196046
1.04893573948906
1.05053722058687
1.04795260471581
1.05059948339086
1.04947760321655
1.05029500545711
1.05082953704282
1.04900328007408
1.05110467958965
1.04990701302178
1.04911886939046
1.05081711304603
1.04923301127417
1.04992741385351
1.05132619598617
1.04960984548309
1.05166158024322
1.04950052583014
1.05033213118486
1.05060668331569
1.0496617267705
1.05058327609726
1.0503788024779
1.04917608016755
1.05047157834543
1.04804750440541
1.0524252355692
1.04847041211424
1.05022120448576
1.04957880321486
1.04952205423044
1.05009993468392
1.05059606292207
1.05068658107093
1.04879552931892
1.05177879397851
1.04873625512253
1.05010876529875
1.05046719041108
1.04954758507535
1.0494693563656
1.05252797490108
1.04932002864991
1.04953322654729
1.04979423650693
1.04981121924299
1.05093901130611
1.04937512075966
1.05108887845481
1.04934013889422
1.04977711585267
1.04920659187624
1.04949750424152
1.05038201802212
1.04970919785396
1.05061982827506
1.04882468479139
1.0503221369231
1.04889125962714
1.05006620306852
1.04966786790465
1.04980353470947
1.0500823103891
1.05006895172767
1.04996435046471
1.0507236104496
1.04938823381997
1.05058276488503
1.05012182358661
1.05042259409332
1.0480888775241
1.05131749015225
1.04956226716144
1.05090095855975
1.05007435814519
1.04976342435136
1.05026753913064
1.04975681838689
1.0509172416588
1.04846189018406
1.05069234374657
1.05026415225503
1.04978671639707
1.05010523922514
1.0498830999827
1.05007211174345
1.04945120849261
1.04962633297734
1.05035761265703
1.04956354530168
1.04915608586926
1.05055019241507
1.04790973988531
1.05130017536014
1.0490975649629
1.04944968028157
1.05007092824093
1.049317774671
1.05070779865392
1.05040064647712
1.04943454242184
1.05229273971653
1.0498140858187
1.05005020521827
1.05063053848136
1.04967822862978
1.05238792277272
1.04915693213969
1.05061139413553
1.05048338284564
1.04882702914424
1.05042360313921
1.05040315037894
1.04923238135873
1.05062263486552
1.04778493436337
1.05087652700041
1.04903448035651
1.05170104979542
1.04903345823878
1.05015382494303
1.05000145827894
1.05019283759559
1.05086134365958
1.04872754380373
1.05068497351167
1.04961386283466
1.05014749093236
1.05062174069636
1.04919941432888
1.05090579224379
1.04944381734717
1.05194447419898
1.04926742788283
1.05167548588636
1.04840366090783
1.05223961902661
1.04900349708081
1.05087822786716
1.04977509662033
1.0510495987306
1.04840799740927
1.05134264318043
1.04915974836089
1.0519259205068
1.04854267642351
1.05218019300094
1.04837539911069
1.05226600529168
1.04857154226757
1.05213873627977
1.04853201016404
1.05227780138623
1.04843396939478
1.05237353556758
1.04828540114477
1.05243242996663
1.0484684845704
1.05195147858105
1.0491114411929
1.05134417134849
1.04967422655663
1.05127539560137
1.05007077329517
1.05056974534882
1.05003573908937
1.04852048522501
1.05077306036805
1.04869857250291
1.05089715626827
1.04905109110516
1.05049666116838
1.04942547581892
1.05048362944379
1.04936415372456
1.05068824393484
1.04957815859343
1.05077536208211
1.04923417299734
1.05060587121324
1.05062589952573
1.04828769477869
1.05117475396737
1.04897043846919
1.05090404580716
1.04823319542307
1.05266208128171
1.04911692070161
1.05217640812009
1.04942253924342
1.05129709679026
1.04803728839886
1.0513490863916
1.04986295198864
1.0507727443755
1.04807459031748
1.05102574963583
1.05000703780008
1.04991536078978
1.05118969693484
1.04971082562175
1.0502872108156
1.05041921255101
1.04905142710487
1.05086947330547
1.04921239381478
1.0512874204923
1.0490063005734
1.05173127106877
1.04889876449356
1.05166461760789
1.04877206200732
1.0512073080705
1.04886899517345
1.05060785008032
1.0483392183922
1.05067097114172
1.05021843394356
1.04977188228625
1.05125905070186
1.04958878422822
1.05105445451181
1.05023070877716
1.04869486096305
1.05143292654339
1.04958730820044
1.05266085305008
1.04944406651006
1.05198687053893
1.04936156757154
1.04937192702352
1.05056949504567
1.04801383730823
1.05059593069123
1.0505960235674
1.0484338328716
1.04995528741775
1.048653453771
1.05123002517891
1.04877591810005
1.04999668171364
1.04998497549397
1.05190349975678
1.04932113997445
1.05075021577222
1.04993026401733
1.04997460990394
1.05118825495207
1.0492067610749
1.05059465787493
1.04797011757651
1.05063011469789
1.04924537660135
1.05059834880774
1.04923496051977
1.04953497384539
1.05105254233012
1.04989399277055
1.05144799102441
1.04937040694727
1.05067641911138
1.04986495155764
1.05172262821464
1.0500537601751
1.05038431616013
1.04993731882654
1.04919444557098
1.05031538690843
1.04945524296098
1.04965185325817
1.05080515216411
1.04987092182975
1.05063326027443
1.04966363828862
1.04999708971096
1.05005446414754
1.05168325117142
1.04865677121409
1.05172904536221
1.04917865078253
1.04957843706975
1.05035965034154
1.04820122471582
1.05141715857229
1.04843991925237
1.05021896937343
1.04901894746152
1.05096069963477
1.04938715302897
1.04960784655763
1.05067234885513
1.04925545261859
1.05061401043861
1.04963107573072
1.05034184130379
1.05045060406007
1.04801376868903
1.05037275686641
1.04941813487334
1.05080083113037
1.04964362007623
1.04946127089407
1.05076956117752
1.04879318503123
1.05139104896054
1.04866030139889
1.05037970642808
1.04972574445457
1.04975688728608
1.05013294688981
1.04844589166493
1.05003888495404
1.05031756541906
1.04832355973252
1.05098728687524
1.04937251859075
1.05183073563135
1.04955016787963
1.05163258560762
1.04973348926896
1.05043006411106
1.05046972459924
1.0480451048929
1.0509416872987
1.04763021776977
1.05017697905674
1.04937962066001
1.04956372988538
1.05160025137586
1.0498203593952
1.05095811033277
1.04974034099696
1.0511258800585
1.04919544816058
1.05035352025134
1.05058590060272
1.04985248125334
1.05040576759094
1.04932714872019
1.05052470642432
1.0487357266108
1.05160635776448
1.04854507601901
1.05068688890812
1.04869902191839
1.0506328739593
1.04922168455977
1.05005395646301
1.05098766359419
1.04878709288264
1.05065967309963
1.04946886802986
1.05096803598207
1.04949220252699
1.04983837594395
1.04905060549564
1.05111874342668
1.04878227649424
1.05116065356705
1.0494720049444
1.05072260908789
1.04897574077128
1.04992053942438
1.05065707086817
1.04816290338134
1.05139108413265
1.04857385519402
1.05155989201168
1.04921901857304
1.0526615077115
1.04845115923684
1.05167257111089
1.04858494099927
1.05182813392235
1.04834974919665
1.05211569458927
1.04899670203932
1.05117737537394
1.04894226680314
1.0502127571552
1.05057214532285
1.04923555212857
1.0504006358681
1.05023569847082
1.05061738163371
1.04990144228703
1.05009478447481
1.05006225808553
1.04998422173276
1.05151516745821
1.04956592858475
1.04951619497935
1.0511585849821
1.04955898949715
1.05048870509107
1.0502336410833
1.04930806512456
1.05206045894532
1.04772426336706
1.05293237490981
1.04893615066281
1.05055792163602
1.04784083257268
1.05061718039587
1.04949148283913
1.05010308823707
1.05085201319432
1.04865482301542
1.05115702496125
1.04980936416641
1.04959873106336
1.05014093560009
1.04973288878209
1.04985443049963
1.051609703824
1.04958736510167
1.05151169266646
1.04948960145132
1.05034388699952
1.05062422539643
1.0490433677681
1.05067443753787
1.0501504415978
1.04973748882935
1.05045190667148
1.0480622794455
1.05219471411212
1.04848625710227
1.05021524439892
1.04977507618597
1.04942025764727
1.05058647219522
1.05014803670912
1.05081608167162
1.04873089204063
1.05198188644148
1.04874431936067
1.05004888930774
1.05053483362673
1.04951906055556
1.04951618580198
1.05179288545047
1.04937843680803
1.0494521658217
1.05003880689445
1.04982085658987
1.05104180986358
1.04932364956732
1.05116191625053
1.04936131557781
1.04942160479659
1.04968124494171
1.04947143055569
1.0506774855319
1.04920065184723
1.05087635373155
1.04844210221097
1.05079606243353
1.04846190693154
1.05015372711661
1.04956611748581
1.0498180551577
1.05073778814605
1.05008894182286
1.04993299938749
1.05081397277323
1.04919554836865
1.05114435518247
1.04950082753278
1.05071827419748
1.0479645059214
1.05158515134774
1.04946626582093
1.05100682987444
1.05006327420783
1.04973751851256
1.05047519793025
1.04968155316331
1.0509740548824
1.04803638393579
1.05069787549585
1.05020055970384
1.04989912025444
1.05027983168888
1.04952398474003
1.05007956129636
1.04950453522862
1.04956032994133
1.05094200759785
1.04950552061729
1.04953068498167
1.05050124649695
1.04861763310948
1.05107819599167
1.04917980863227
1.04931705267602
1.05098413201022
1.04907838149779
1.05073110372934
1.05045273820458
1.04939983140362
1.05229760988141
1.04978582596287
1.05004671769112
1.0506649332515
1.04965251142601
1.05260223523875
1.0491224958873
1.05063892547849
1.05052259298817
1.04890842026303
1.05042687240754
1.05042425090802
1.04920357976542
1.05064457532594
1.04766199876614
1.05088422207008
1.0491238997744
1.05172529347007
1.04902574907733
1.05013943113247
1.05010950927145
1.05021496163527
1.05085823524267
1.04892463202011
1.05075606785128
1.04959222784488
1.05025409498274
1.05061635228381
1.04915494444871
1.05124951076479
1.0493212330721
1.05231215831701
1.04889215990805
1.05193902747353
1.04827816275153
1.05232021386456
1.04893095989688
1.05089876994172
1.0497246032419
1.05112945900658
1.04849888095954
1.05141449179933
1.049100481081
1.05200878452603
1.04835828878546
1.05227511382078
1.04825476801123
1.05227600469183
1.048538111753
1.05192100845653
1.04876882710206
1.0519536156712
1.04855904774091
1.05210086050855
1.04836187385108
1.05224278628875
1.0484984449159
1.05194884706114
1.04908435704353
1.05135926980234
1.04979286201839
1.05106974308058
1.0501517030492
1.05065599770712
1.04984120841687
1.04889757916167
1.0501586395403
1.04937775310263
1.05020985170125
1.04992743288816
1.04991187477314
1.05013619252416
1.0497346710844
1.0502445562256
1.04995371873091
1.05035415516496
1.05017230636523
1.04996484434001
1.05044998389245
1.05066018214588
1.0482096236431
1.05176969335947
1.04843209030745
1.05115069657964
1.04823994258388
1.0528148288792
1.04911075210542
1.05232237695085
1.04942196090703
1.05112640597183
1.04842759073622
1.05121554629138
1.04986125164375
1.05078426711621
1.0479103453037
1.05103214722013
1.04999217722457
1.04991818716285
1.0511901570941
1.04970630332816
1.05033951718498
1.05043391012331
1.0490698829072
1.05103559264168
1.04898545798956
1.05170806439561
1.04861226983
1.05215871951704
1.0484818522308
1.0520129279497
1.04845763976353
1.05155104263267
1.04875375336043
1.05061227767385
1.04901656961957
1.05064801631859
1.05041918175912
1.04968638834877
1.05170086570285
1.04953311192061
1.05113158425908
1.05022876567766
1.04871610715138
1.05140977807095
1.04962473014663
1.05244950759752
1.04950356682041
1.05198203059395
1.04943372565491
1.0492557787315
1.05057134244744
1.04843982266592
1.05057741088266
1.05060579850616
1.04825592245987
1.05018232363502
1.04851746193556
1.05175035888629
1.0486053161264
1.05004133481523
1.05000622824818
1.05187023712996
1.04933442930831
1.05074222084695
1.04993414121637
1.0499767361237
1.05119203911941
1.04921541403065
1.05057076025996
1.0482601028541
1.05060985403702
1.04922966996143
1.05067915351082
1.04919199667885
1.04963182591804
1.05115855063248
1.04985449177976
1.05151953069525
1.04934218698736
1.05067013586058
1.04989686184019
1.05090505671904
1.05015732536209
1.05011530062518
1.05000340470173
1.0493122191009
1.05006387566628
1.04996662384541
1.04959216752613
1.05140481277879
1.04936170432327
1.05124357197484
1.04948078261268
1.05023479930525
1.05005085986966
1.0517749609227
1.0486055696499
1.05175840730619
1.04919478351466
1.04952510993849
1.05044459903713
1.04801267720593
1.05189063687595
1.04830011009816
1.05028779538392
1.04900645415444
1.05095776067086
1.04946550680332
1.04955817052597
1.05076184215249
1.04870273979495
1.05077989150115
1.04955030824955
1.05040307881673
1.05045604611345
1.04855554765
1.05038337646175
1.04932706327476
1.05093251295639
1.04961288620641
1.04964818670366
1.05056305226987
1.0495188588604
1.05068129800139
1.04937100846427
1.0503520466568
1.04998305757803
1.04972220971912
1.05015292297887
1.04818935865619
1.05006242071892
1.05033284787231
1.04833776057102
1.05093794158289
1.04949632903983
1.05131733177545
1.04998757544341
1.05089807681974
1.04987045342828
1.05024113388979
1.05050384884736
1.04816210201205
1.05082582078614
1.04821646792662
1.05015785658716
1.04939780287303
1.04952580575307
1.05189225190886
1.04937647754631
1.05156132819424
1.04919622832744
1.05159011872233
1.0491101403301
1.05051105237942
1.0501301862264
1.05021834370348
1.05036596728179
1.0495107111434
1.05041832561909
1.04928148573495
1.05091479949543
1.04937763447574
1.050372062935
1.0493092636348
1.05026630092491
1.04935096091154
1.05016746436023
1.05099227295886
1.04873803766103
1.05085813599918
1.04918557432274
1.05154432337765
1.04934067490121
1.05039008337746
1.04895365603465
1.05140019022196
1.04846729970288
1.0513747648374
1.04938795187873
1.0508144693478
1.04888968848834
1.05013747710759
1.05059809550728
1.04819241867261
1.05127910468314
1.04866059350219
1.05108401847161
1.049225978784
1.05270376539483
1.04839629830677
1.0517800527212
1.04839430121593
1.05203149830713
1.04807698276577
1.05222849633955
1.04894767469986
1.05125499706227
1.04891284670132
1.05018235273966
1.05059648839912
1.0491462263266
1.05050733757312
1.050127980343
1.0512721928547
1.04981924602701
1.05027604579758
1.05005536192191
1.04996206289244
1.05179622422205
1.04954205660741
1.04956527729631
1.05125182775474
1.04951671389864
1.05052444745739
1.05015199072475
1.0492905783852
1.0520865101719
1.04771001847706
1.0529351955416
1.04895652278084
1.05057125604243
1.04785385114429
1.05062933085802
1.04950973139297
1.04998758918818
1.05086266279708
1.04842699520057
1.05119307838594
1.04977169281658
1.05000427480186
1.04949417724521
1.05017383109413
1.04981588918987
1.05177598454123
1.04958136494915
1.05116222428138
1.04949549605888
1.05030562002988
1.05064442133269
1.04852400634592
1.050758084491
1.04982084687879
1.05015442783412
1.0504206956496
1.0481850918895
1.05174652888294
1.04854665231104
1.05020275166244
1.04995021991663
1.04934917886365
1.05097605958318
1.04967296372332
1.05107278322623
1.04867219559433
1.05214025122072
1.04875661572263
1.05000830490988
1.05058581760396
1.04947851003865
1.04959452732316
1.05085892900799
1.04946700954038
1.04938073580329
1.05017032404119
1.04982479346441
1.05108807799417
1.04933651474552
1.05120142821896
1.04942206019999
1.04916372200338
1.05006627840564
1.04941795375106
1.05083691616856
1.04878568562994
1.05105652887651
1.04813358439237
1.0511697764414
1.04823796041151
1.05022693397
1.04950336585652
1.04983760408194
1.05126747473513
1.05010660176241
1.04990519175425
1.05087470398392
1.04910450899812
1.05158356711878
1.04886080897113
1.05121716116648
1.04783994953579
1.051821231724
1.04940629144803
1.05106270286498
1.05006700301998
1.04971945842458
1.0506050133558
1.04962139862844
1.05102260341931
1.04775682643238
1.05069236664421
1.05016815774603
1.04995135794207
1.05034623524147
1.04925040787322
1.05008432284884
1.04957101112438
1.04949856627
1.0514508592948
1.04944173840473
1.04997479407286
1.05031273746461
1.04955658451622
1.0505414985692
1.04956071486072
1.04925745602757
1.05178747293179
1.04896866418814
1.05075295214187
1.05046678176639
1.04937590532883
1.05208712530751
1.04976386970955
1.05003375108993
1.05068609202975
1.04963908117955
1.05268513405048
1.04909479282409
1.05066670392318
1.05055861856777
1.04914009491723
1.05042390839255
1.05044182178248
1.04919843063384
1.05065088115336
1.04771821083374
1.05088574396701
1.04917293025219
1.05161770617444
1.04903109590705
1.05011335110404
1.05021575343833
1.05023050147533
1.05082664539044
1.04926074233935
1.05082590617793
1.04958037512689
1.05033548338968
1.05060111940195
1.04914098498702
1.05149739359008
1.04922719147257
1.05249209384925
1.04867565299723
1.0520644959198
1.04826056931495
1.05230052823849
1.0488926204964
1.05089597526797
1.04970756344508
1.05119935947452
1.04872707245024
1.05142092581935
1.04908140141121
1.05201747305723
1.0483442071094
1.05217112432047
1.04830928748806
1.05207111566784
1.04860043249017
1.05145357028299
1.04923293522252
1.05130364357126
1.04890726324737
1.05151940562169
1.04864639700803
1.05176121368485
1.04873347795037
1.05173496672765
1.04913086325946
1.05134434494226
1.0498806360762
1.0505957942107
1.05035054722019
1.0506947749378
1.04963653587386
1.04964392845481
1.04957924817433
1.05027309368368
1.04953200531626
1.05086443507839
1.04947301786658
1.05079083631427
1.04911910273265
1.05112813558529
1.04927165893566
1.05109734763756
1.04957066724974
1.050525084939
1.05007463474225
1.05068231834176
1.04817429117307
1.05223225248053
1.04813731642526
1.05132411563076
1.04826213374286
1.05289424282637
1.04916242436961
1.05233896442544
1.04943288109304
1.05057437424323
1.04906000155746
1.05064608127228
1.04987147233598
1.05077933057692
1.04788431711358
1.0510184419531
1.04998053816953
1.04992201830222
1.05110956188907
1.0497106672164
1.0503807328135
1.05044000991013
1.04912817829659
1.05111937147057
1.04887333382466
1.05191642962931
1.04840807014422
1.05239187324914
1.0482346478063
1.05215898783524
1.04829325597468
1.05172342739594
1.04869135216561
1.0506051761156
1.04969709851951
1.05058816952565
1.05050309578957
1.04961739574982
1.05202674605275