/*--------------------------------*- C++ -*----------------------------------*\
| =========                 |                                                 |
| \\      /  F ield         | foam-extend: Open Source CFD                    |
|  \\    /   O peration     | Version:     4.0                                |
|   \\  /    A nd           | Web:         http://www.foam-extend.org         |
|    \\/     M anipulation  |                                                 |
\*---------------------------------------------------------------------------*/
FoamFile
{
    version     2.0;
    format      ascii;
    class       volVectorField;
    object      U;
}
// * * * * * * * * * * * * * * * * * * * * * * * * * * * * * * * * * * * * * //

dimensions      [0 1 -1 0 0 0 0];

internalField   nonuniform List<vector> 
4000
(
(0.289170214405984 0.00454264873010254 0)
(0.288884838316309 0.0136234631444516 0)
(0.288314367768704 0.0226908328454578 0)
(0.287459365748727 0.0317358094339429 0)
(0.286320676040146 0.0407494666100275 0)
(0.284899422392228 0.0497229089823106 0)
(0.283197007410732 0.0586472808465478 0)
(0.281215111173711 0.0675137749251614 0)
(0.278955689573474 0.0763136410589608 0)
(0.276420972386356 0.0850381948424925 0)
(0.273613461072201 0.0936788261945003 0)
(0.270535926305721 0.102227007855036 0)
(0.267191405242176 0.110674303800835 0)
(0.263583198520066 0.119012377570653 0)
(0.259714867003802 0.127233000492347 0)
(0.255590228269561 0.135328059803582 0)
(0.2512133528378 0.143289566658145 0)
(0.246588560156144 0.151109664009976 0)
(0.241720414336611 0.15878063436712 0)
(0.236613719651388 0.166294907407961 0)
(0.231273515791589 0.173645067452219 0)
(0.225705072893694 0.180823860779324 0)
(0.219913886338557 0.187824202786969 0)
(0.213905671328128 0.194639184982755 0)
(0.207686357245243 0.201262081802035 0)
(0.201262081802035 0.207686357245243 0)
(0.194639184982755 0.213905671328128 0)
(0.187824202786969 0.219913886338557 0)
(0.180823860779324 0.225705072893694 0)
(0.173645067452219 0.231273515791589 0)
(0.166294907407961 0.236613719651388 0)
(0.15878063436712 0.241720414336611 0)
(0.151109664009976 0.246588560156144 0)
(0.143289566658145 0.2512133528378 0)
(0.135328059803582 0.255590228269561 0)
(0.127233000492347 0.259714867003802 0)
(0.119012377570653 0.263583198520066 0)
(0.110674303800835 0.267191405242176 0)
(0.102227007855036 0.270535926305721 0)
(0.0936788261945003 0.273613461072201 0)
(0.0850381948424925 0.276420972386356 0)
(0.0763136410589608 0.278955689573474 0)
(0.0675137749251615 0.281215111173711 0)
(0.0586472808465479 0.283197007410732 0)
(0.0497229089823106 0.284899422392228 0)
(0.0407494666100275 0.286320676040146 0)
(0.0317358094339429 0.287459365748727 0)
(0.0226908328454578 0.288314367768704 0)
(0.0136234631444516 0.288884838316309 0)
(0.00454264873010253 0.289170214405984 0)
(0.29738905752895 0.00467176063518634 0)
(0.297095570433384 0.0140106714418406 0)
(0.296508885878585 0.0233357554073106 0)
(0.295629582851374 0.0326378097995535 0)
(0.294458529117681 0.0419076546139348 0)
(0.292996880366159 0.0511361416327845 0)
(0.291246079067657 0.060314163453584 0)
(0.28920785305168 0.0694326624768719 0)
(0.286884213801229 0.0784826398450021 0)
(0.284277454467706 0.0874551643229291 0)
(0.281390147607857 0.0963413811122595 0)
(0.278225142644964 0.105132520589868 0)
(0.274785563056808 0.113819906962457 0)
(0.271074803293178 0.122394966828518 0)
(0.267096525425956 0.130849237639243 0)
(0.262854655535092 0.139174376050038 0)
(0.258353379834042 0.147362166154398 0)
(0.253597140538478 0.155404527592013 0)
(0.248590631482356 0.16329352352311 0)
(0.243338793485672 0.171021368461157 0)
(0.237846809478466 0.178580435956192 0)
(0.232120099385898 0.185963266121216 0)
(0.226164314779435 0.193162572994195 0)
(0.219985333299434 0.20017125172843 0)
(0.213589252854617 0.206982385604176 0)
(0.206982385604176 0.213589252854617 0)
(0.20017125172843 0.219985333299434 0)
(0.193162572994195 0.226164314779435 0)
(0.185963266121216 0.232120099385898 0)
(0.178580435956192 0.237846809478466 0)
(0.171021368461157 0.243338793485672 0)
(0.16329352352311 0.248590631482356 0)
(0.155404527592013 0.253597140538478 0)
(0.147362166154398 0.258353379834042 0)
(0.139174376050038 0.262854655535092 0)
(0.130849237639243 0.267096525425956 0)
(0.122394966828518 0.271074803293178 0)
(0.113819906962457 0.274785563056808 0)
(0.105132520589868 0.278225142644964 0)
(0.0963413811122595 0.281390147607857 0)
(0.0874551643229292 0.284277454467706 0)
(0.078482639845002 0.286884213801229 0)
(0.0694326624768719 0.28920785305168 0)
(0.060314163453584 0.291246079067657 0)
(0.0511361416327845 0.292996880366159 0)
(0.0419076546139348 0.294458529117681 0)
(0.0326378097995535 0.295629582851374 0)
(0.0233357554073106 0.296508885878585 0)
(0.0140106714418406 0.297095570433384 0)
(0.00467176063518633 0.29738905752895 0)
(0.306116123701421 0.00480885634591622 0)
(0.305814024045175 0.0144218232771155 0)
(0.305210122868571 0.0240205576099081 0)
(0.304305016149161 0.0335955865523768 0)
(0.303099597118001 0.0431374607069626 0)
(0.301595055378144 0.0526367633958793 0)
(0.29979287573064 0.0620841199542378 0)
(0.297694836709223 0.0714702069817081 0)
(0.295303008825108 0.0807857615435901 0)
(0.292619752523646 0.0900215903122118 0)
(0.289647715854854 0.0991685786396336 0)
(0.286389831860106 0.108217699552706 0)
(0.282849315677575 0.117160022661601 0)
(0.279029661369283 0.125986722973029 0)
(0.274934638472878 0.134689089599445 0)
(0.270568288281561 0.143258534355637 0)
(0.265934919855816 0.151686600234232 0)
(0.261039105770886 0.159964969751742 0)
(0.255885677604192 0.168085473156911 0)
(0.250479721167156 0.17604009649328 0)
(0.244826571486111 0.183820989507988 0)
(0.238931807537279 0.191420473399028 0)
(0.232801246740994 0.198831048393298 0)
(0.226440939220612 0.206045401147967 0)
(0.219857161831764 0.213056411967866 0)
(0.213056411967866 0.219857161831764 0)
(0.206045401147967 0.226440939220612 0)
(0.198831048393298 0.232801246740994 0)
(0.191420473399028 0.238931807537279 0)
(0.183820989507988 0.244826571486111 0)
(0.17604009649328 0.250479721167156 0)
(0.168085473156911 0.255885677604192 0)
(0.159964969751742 0.261039105770886 0)
(0.151686600234232 0.265934919855816 0)
(0.143258534355637 0.270568288281561 0)
(0.134689089599445 0.274934638472878 0)
(0.125986722973029 0.279029661369283 0)
(0.117160022661601 0.282849315677575 0)
(0.108217699552706 0.286389831860106 0)
(0.0991685786396336 0.289647715854854 0)
(0.0900215903122119 0.292619752523646 0)
(0.0807857615435901 0.295303008825108 0)
(0.0714702069817081 0.297694836709223 0)
(0.0620841199542379 0.29979287573064 0)
(0.0526367633958793 0.301595055378144 0)
(0.0431374607069626 0.303099597118001 0)
(0.0335955865523768 0.304305016149161 0)
(0.0240205576099081 0.305210122868571 0)
(0.0144218232771155 0.305814024045175 0)
(0.00480885634591621 0.306116123701421 0)
(0.315403181075566 0.00495474910141219 0)
(0.315091916214932 0.0148593575650676 0)
(0.314469693674502 0.0247493016367982 0)
(0.313537127512801 0.0346148211358327 0)
(0.312295138060042 0.0444461799855042 0)
(0.310744951009866 0.0542336758215823 0)
(0.308888096209736 0.0639676495673355 0)
(0.306726406151158 0.0736384949658737 0)
(0.304262014161237 0.0832366680603639 0)
(0.301497352297338 0.0927526966127631 0)
(0.298435148946937 0.102177189451774 0)
(0.295078426135038 0.111500845740798 0)
(0.291430496541794 0.120714464156736 0)
(0.287494960233293 0.129808951970585 0)
(0.283275701108729 0.138775334020864 0)
(0.27877688306746 0.147604761571014 0)
(0.274002945899745 0.156288521042031 0)
(0.268958600905204 0.164818042611722 0)
(0.263648826243334 0.173184908672079 0)
(0.258078862020671 0.181380862136444 0)
(0.252254205119432 0.189397814588257 0)
(0.24618060377276 0.197227854263346 0)
(0.239864051891908 0.204863253857885 0)
(0.233310783150977 0.212296478154307 0)
(0.226527264835028 0.219520191457655 0)
(0.219520191457655 0.226527264835028 0)
(0.212296478154307 0.233310783150977 0)
(0.204863253857885 0.239864051891908 0)
(0.197227854263346 0.24618060377276 0)
(0.189397814588257 0.252254205119432 0)
(0.181380862136444 0.258078862020671 0)
(0.173184908672079 0.263648826243334 0)
(0.164818042611722 0.268958600905204 0)
(0.156288521042031 0.274002945899745 0)
(0.147604761571014 0.27877688306746 0)
(0.138775334020864 0.283275701108729 0)
(0.129808951970585 0.287494960233293 0)
(0.120714464156736 0.291430496541794 0)
(0.111500845740798 0.295078426135038 0)
(0.102177189451774 0.298435148946937 0)
(0.0927526966127632 0.301497352297338 0)
(0.0832366680603638 0.304262014161237 0)
(0.0736384949658738 0.306726406151158 0)
(0.0639676495673356 0.308888096209736 0)
(0.0542336758215823 0.310744951009866 0)
(0.0444461799855042 0.312295138060042 0)
(0.0346148211358328 0.313537127512801 0)
(0.0247493016367982 0.314469693674502 0)
(0.0148593575650676 0.315091916214932 0)
(0.00495474910141218 0.315403181075566 0)
(0.325309782136751 0.00511037442687203 0)
(0.324988740656908 0.0153260799580398 0)
(0.324346974526403 0.025526660498629 0)
(0.323385117090925 0.0357020493071771 0)
(0.322104117587637 0.0458422045034197 0)
(0.320505240208391 0.0559371189784138 0)
(0.318590062852126 0.0659768302703465 0)
(0.31636047556767 0.0759514303962815 0)
(0.313818678688492 0.0858510756301428 0)
(0.310967180661237 0.0956659962172831 0)
(0.307808795570191 0.105386506016053 0)
(0.304346640360125 0.115003012056851 0)
(0.300584131760238 0.124506024009232 0)
(0.296524982912265 0.13388616354771 0)
(0.292173199706054 0.143134173607038 0)
(0.28753307682623 0.152240927517815 0)
(0.282609193513868 0.161197438013402 0)
(0.277406409047329 0.169994866099272 0)
(0.271929857946742 0.178624529776031 0)
(0.266184944906851 0.187077912607501 0)
(0.260177339463236 0.195346672125418 0)
(0.25391297039716 0.203422648062437 0)
(0.247398019884587 0.211297870405333 0)
(0.240638917395113 0.218964567260439 0)
(0.233642333346859 0.226415172523572 0)
(0.226415172523572 0.233642333346859 0)
(0.218964567260439 0.240638917395113 0)
(0.211297870405333 0.247398019884587 0)
(0.203422648062437 0.25391297039716 0)
(0.195346672125418 0.260177339463235 0)
(0.187077912607501 0.266184944906851 0)
(0.17862452977603 0.271929857946742 0)
(0.169994866099272 0.277406409047329 0)
(0.161197438013402 0.282609193513868 0)
(0.152240927517815 0.28753307682623 0)
(0.143134173607038 0.292173199706054 0)
(0.13388616354771 0.296524982912265 0)
(0.124506024009232 0.300584131760238 0)
(0.115003012056851 0.304346640360125 0)
(0.105386506016053 0.307808795570191 0)
(0.0956659962172831 0.310967180661237 0)
(0.0858510756301428 0.313818678688492 0)
(0.0759514303962815 0.31636047556767 0)
(0.0659768302703465 0.318590062852126 0)
(0.0559371189784138 0.320505240208391 0)
(0.0458422045034197 0.322104117587637 0)
(0.0357020493071771 0.323385117090925 0)
(0.025526660498629 0.324346974526403 0)
(0.0153260799580398 0.324988740656908 0)
(0.00511037442687202 0.325309782136751 0)
(0.335904892697312 0.00527681572385034 0)
(0.335573395122509 0.0158252395915093 0)
(0.334910727120987 0.0263580458582957 0)
(0.333917542666058 0.0368648399160654 0)
(0.332594821910872 0.0473352528275841 0)
(0.330943870221119 0.0577589515594162 0)
(0.328966316886796 0.0681256491793819 0)
(0.32666411351429 0.0784251150085169 0)
(0.324039532100382 0.0886471847175174 0)
(0.321095162790057 0.0987817703577059 0)
(0.317833911320348 0.108818870316619 0)
(0.314258996152719 0.118748579188391 0)
(0.310373945296835 0.128561097549194 0)
(0.306182592828844 0.138246741628085 0)
(0.301689075107603 0.147795952863721 0)
(0.296897826692594 0.157199307337502 0)
(0.291813575967549 0.166447525073843 0)
(0.286441340474104 0.175531479198389 0)
(0.280786421960093 0.184442204945139 0)
(0.274854401147363 0.193170908503586 0)
(0.268651132224274 0.201708975697145 0)
(0.262182737068325 0.210047980484312 0)
(0.255455599204594 0.21817969327414 0)
(0.248476357505977 0.226096089047861 0)
(0.241251899641415 0.233789355278602 0)
(0.233789355278602 0.241251899641415 0)
(0.226096089047861 0.248476357505977 0)
(0.21817969327414 0.255455599204594 0)
(0.210047980484312 0.262182737068325 0)
(0.201708975697145 0.268651132224274 0)
(0.193170908503586 0.274854401147363 0)
(0.184442204945139 0.280786421960093 0)
(0.175531479198389 0.286441340474104 0)
(0.166447525073843 0.291813575967549 0)
(0.157199307337502 0.296897826692594 0)
(0.147795952863721 0.301689075107603 0)
(0.138246741628085 0.306182592828844 0)
(0.128561097549194 0.310373945296835 0)
(0.118748579188391 0.314258996152719 0)
(0.108818870316619 0.317833911320348 0)
(0.098781770357706 0.321095162790057 0)
(0.0886471847175173 0.324039532100382 0)
(0.0784251150085169 0.32666411351429 0)
(0.068125649179382 0.328966316886796 0)
(0.0577589515594162 0.330943870221119 0)
(0.0473352528275841 0.332594821910872 0)
(0.0368648399160655 0.333917542666058 0)
(0.0263580458582957 0.334910727120987 0)
(0.0158252395915093 0.335573395122509 0)
(0.00527681572385033 0.335904892697312 0)
(0.347268977451935 0.00545533703278049 0)
(0.346926264897482 0.0163606273393209 0)
(0.346241178004491 0.0272497716819199 0)
(0.345214392871013 0.0381120237897737 0)
(0.34384692281001 0.0489366639314674 0)
(0.342140117349335 0.0597130094940557 0)
(0.340095660899914 0.0704304255255124 0)
(0.337715571093431 0.0810783352301437 0)
(0.335002196791174 0.091646230406609 0)
(0.33195821576599 0.102123681818246 0)
(0.328586632059646 0.112500349485471 0)
(0.324890773018203 0.122765992890085 0)
(0.32087428600833 0.132910481081434 0)
(0.316541134817789 0.142923802674433 0)
(0.311895595743657 0.152796075729592 0)
(0.306942253372138 0.162517557505299 0)
(0.301685996054128 0.172078654072732 0)
(0.296132011081004 0.181469929783902 0)
(0.290285779565394 0.190682116583506 0)
(0.28415307103198 0.199706123155373 0)
(0.277739937723673 0.208533043894497 0)
(0.271052708628782 0.217154167695798 0)
(0.264097983235065 0.225560986550923 0)
(0.25688262501683 0.23374520394463 0)
(0.249413754661519 0.241698743042445 0)
(0.241698743042445 0.249413754661519 0)
(0.23374520394463 0.25688262501683 0)
(0.225560986550923 0.264097983235065 0)
(0.217154167695798 0.271052708628782 0)
(0.208533043894497 0.277739937723673 0)
(0.199706123155373 0.28415307103198 0)
(0.190682116583506 0.290285779565394 0)
(0.181469929783902 0.296132011081004 0)
(0.172078654072732 0.301685996054128 0)
(0.162517557505299 0.306942253372138 0)
(0.152796075729592 0.311895595743657 0)
(0.142923802674433 0.316541134817789 0)
(0.132910481081434 0.32087428600833 0)
(0.122765992890085 0.324890773018203 0)
(0.112500349485471 0.328586632059646 0)
(0.102123681818246 0.33195821576599 0)
(0.0916462304066089 0.335002196791174 0)
(0.0810783352301437 0.337715571093431 0)
(0.0704304255255125 0.340095660899914 0)
(0.0597130094940557 0.342140117349335 0)
(0.0489366639314674 0.34384692281001 0)
(0.0381120237897737 0.345214392871013 0)
(0.02724977168192 0.346241178004491 0)
(0.0163606273393209 0.346926264897482 0)
(0.00545533703278048 0.347268977451935 0)
(0.359496708702503 0.00564742558502481 0)
(0.359141928853577 0.016936703427844 0)
(0.358432719280603 0.0282092667891728 0)
(0.357369779887806 0.0394539910099268 0)
(0.355954159668037 0.0506597789048921 0)
(0.354187255667541 0.0618155717143074 0)
(0.352070811607247 0.0729103600175252 0)
(0.349606916161921 0.0839331945979801 0)
(0.346798000898897 0.0948731972487442 0)
(0.343646837878417 0.105719571508004 0)
(0.340156536917935 0.116461613313863 0)
(0.336330542523113 0.127088721567963 0)
(0.332172630488498 0.137590408597483 0)
(0.327686904171279 0.147956310505208 0)
(0.322877790441763 0.158176197397446 0)
(0.317750035314588 0.168239983479697 0)
(0.312308699264985 0.178137737010113 0)
(0.306559152234693 0.187859690100929 0)
(0.30050706833248 0.197396248358191 0)
(0.294158420234482 0.206738000350261 0)
(0.287519473289888 0.215875726895767 0)
(0.280596779337804 0.224800410161819 0)
(0.273397170241373 0.233503242563524 0)
(0.265927751145555 0.241975635456007 0)
(0.258195893465202 0.250209227610367 0)
(0.250209227610367 0.258195893465202 0)
(0.241975635456007 0.265927751145555 0)
(0.233503242563524 0.273397170241373 0)
(0.22480041016182 0.280596779337804 0)
(0.215875726895767 0.287519473289888 0)
(0.206738000350261 0.294158420234482 0)
(0.197396248358191 0.30050706833248 0)
(0.187859690100929 0.306559152234693 0)
(0.178137737010113 0.312308699264985 0)
(0.168239983479697 0.317750035314588 0)
(0.158176197397446 0.322877790441763 0)
(0.147956310505208 0.327686904171279 0)
(0.137590408597483 0.332172630488498 0)
(0.127088721567963 0.336330542523113 0)
(0.116461613313863 0.340156536917935 0)
(0.105719571508004 0.343646837878417 0)
(0.0948731972487441 0.346798000898897 0)
(0.0839331945979801 0.349606916161921 0)
(0.0729103600175253 0.352070811607247 0)
(0.0618155717143074 0.354187255667541 0)
(0.0506597789048921 0.355954159668037 0)
(0.0394539910099269 0.357369779887806 0)
(0.0282092667891728 0.358432719280603 0)
(0.016936703427844 0.359141928853577 0)
(0.0056474255850248 0.359496708702503 0)
(0.372700542307816 0.00585484797838186 0)
(0.37233273186924 0.0175587659070553 0)
(0.371597473976585 0.029245355453674 0)
(0.370495494240621 0.0409030833652944 0)
(0.369027880182305 0.0525204448719224 0)
(0.367196080159525 0.0640859750403319 0)
(0.365001901937747 0.0755882600885702 0)
(0.362447510905971 0.0870159486499823 0)
(0.359535427939749 0.0983577629756397 0)
(0.356268526913388 0.109602510064117 0)
(0.352650031863784 0.120739092707632 0)
(0.348683513808686 0.131756520443652 0)
(0.344372887222528 0.142643920401152 0)
(0.339722406173325 0.153390548030824 0)
(0.334736660124412 0.163985797708656 0)
(0.329420569405202 0.174419213202395 0)
(0.323779380355418 0.18468049799059 0)
(0.31781866014758 0.194759525424014 0)
(0.311544291292889 0.204646348719448 0)
(0.30496246583589 0.214331210775949 0)
(0.298079679243675 0.223804553803934 0)
(0.290902723995643 0.233057028757566 0)
(0.283438682880139 0.242079504561131 0)
(0.275694922004598 0.250863077120306 0)
(0.267679083526091 0.25939907810943 0)
(0.25939907810943 0.267679083526091 0)
(0.250863077120306 0.275694922004598 0)
(0.242079504561131 0.283438682880139 0)
(0.233057028757566 0.290902723995643 0)
(0.223804553803934 0.298079679243675 0)
(0.214331210775949 0.30496246583589 0)
(0.204646348719448 0.311544291292889 0)
(0.194759525424014 0.31781866014758 0)
(0.18468049799059 0.323779380355418 0)
(0.174419213202395 0.329420569405202 0)
(0.163985797708656 0.334736660124412 0)
(0.153390548030825 0.339722406173325 0)
(0.142643920401152 0.344372887222528 0)
(0.131756520443652 0.348683513808686 0)
(0.120739092707632 0.352650031863784 0)
(0.109602510064117 0.356268526913388 0)
(0.0983577629756396 0.359535427939749 0)
(0.0870159486499824 0.362447510905971 0)
(0.0755882600885703 0.365001901937747 0)
(0.0640859750403319 0.367196080159525 0)
(0.0525204448719224 0.369027880182305 0)
(0.0409030833652944 0.370495494240621 0)
(0.029245355453674 0.371597473976585 0)
(0.0175587659070553 0.37233273186924 0)
(0.00585484797838185 0.372700542307816 0)
(0.387015527462788 0.00607972573513578 0)
(0.386633589862133 0.0182331772501209 0)
(0.385870091587123 0.0303686348204784 0)
(0.384725786118377 0.0424741222147178 0)
(0.38320180274724 0.0545376927782941 0)
(0.381299645461305 0.0665474412235137 0)
(0.379021191460164 0.0784915153786157 0)
(0.376368689302835 0.0903581278844345 0)
(0.373344756688707 0.1021355678271 0)
(0.369952377874186 0.113812212295297 0)
(0.366194900727594 0.125376537850674 0)
(0.362076033425231 0.136817131900084 0)
(0.357599840791846 0.148122703958442 0)
(0.352770740289152 0.159282096791064 0)
(0.34759349765632 0.170284297424513 0)
(0.342073222206772 0.181118448015077 0)
(0.336215361785908 0.191773856564145 0)
(0.330025697394733 0.202240007469923 0)
(0.323510337484714 0.21250657190506 0)
(0.316675711929475 0.222563418009956 0)
(0.309528565679283 0.232400620891683 0)
(0.302075952104603 0.242008472418657 0)
(0.294325226035267 0.25137749080139 0)
(0.286284036502149 0.260498429949876 0)
(0.277960319188494 0.269362288598357 0)
(0.269362288598357 0.277960319188494 0)
(0.260498429949876 0.286284036502149 0)
(0.25137749080139 0.294325226035267 0)
(0.242008472418657 0.302075952104603 0)
(0.232400620891683 0.309528565679283 0)
(0.222563418009956 0.316675711929475 0)
(0.21250657190506 0.323510337484714 0)
(0.202240007469923 0.330025697394733 0)
(0.191773856564145 0.336215361785908 0)
(0.181118448015077 0.342073222206772 0)
(0.170284297424513 0.34759349765632 0)
(0.159282096791064 0.352770740289152 0)
(0.148122703958442 0.357599840791846 0)
(0.136817131900084 0.362076033425231 0)
(0.125376537850674 0.366194900727594 0)
(0.113812212295297 0.369952377874186 0)
(0.1021355678271 0.373344756688707 0)
(0.0903581278844345 0.376368689302835 0)
(0.0784915153786158 0.379021191460164 0)
(0.0665474412235137 0.381299645461305 0)
(0.0545376927782942 0.38320180274724 0)
(0.0424741222147178 0.384725786118377 0)
(0.0303686348204784 0.385870091587123 0)
(0.018233177250121 0.386633589862133 0)
(0.00607972573513577 0.387015527462788 0)
(0.402605917078298 0.00632463914620124 0)
(0.402208593645343 0.0189676757833494 0)
(0.401414338889692 0.0315919936144946 0)
(0.400223936644897 0.0441851339620899 0)
(0.398638561694256 0.0567346689170005 0)
(0.396659778611439 0.0692282136033496 0)
(0.394289540216448 0.0816534384008957 0)
(0.391530185648416 0.0939980811128792 0)
(0.388384438057162 0.10624995906733 0)
(0.384855401915766 0.118396981139895 0)
(0.380946559956836 0.130427159686315 0)
(0.376661769735464 0.142328622372787 0)
(0.372005259822289 0.154089623892519 0)
(0.366981625630409 0.165698557556935 0)
(0.36159582488026 0.177143966750072 0)
(0.355853172706948 0.188414556234877 0)
(0.349759336414848 0.199499203300243 0)
(0.343320329884663 0.210386968737783 0)
(0.336542507638448 0.221067107637505 0)
(0.329432558568462 0.231529079991744 0)
(0.321997499336045 0.241762561096875 0)
(0.314244667447012 0.251757451742552 0)
(0.306181714010427 0.261503888178405 0)
(0.297816596187881 0.270992251848372 0)
(0.28915756934073 0.280213178883056 0)
(0.280213178883056 0.28915756934073 0)
(0.270992251848372 0.297816596187881 0)
(0.261503888178405 0.306181714010427 0)
(0.251757451742552 0.314244667447012 0)
(0.241762561096876 0.321997499336045 0)
(0.231529079991744 0.329432558568462 0)
(0.221067107637505 0.336542507638448 0)
(0.210386968737783 0.343320329884663 0)
(0.199499203300243 0.349759336414848 0)
(0.188414556234877 0.355853172706948 0)
(0.177143966750072 0.36159582488026 0)
(0.165698557556935 0.366981625630409 0)
(0.154089623892519 0.372005259822289 0)
(0.142328622372787 0.376661769735464 0)
(0.130427159686315 0.380946559956836 0)
(0.118396981139895 0.384855401915766 0)
(0.10624995906733 0.388384438057162 0)
(0.0939980811128792 0.391530185648416 0)
(0.0816534384008958 0.394289540216448 0)
(0.0692282136033496 0.396659778611439 0)
(0.0567346689170005 0.398638561694256 0)
(0.0441851339620899 0.400223936644897 0)
(0.0315919936144946 0.401414338889692 0)
(0.0189676757833494 0.402208593645343 0)
(0.00632463914620123 0.402605917078298 0)
(0.419674484643409 0.0065927736320908 0)
(0.41926031659498 0.0197718146246527 0)
(0.418432389231984 0.0329313432232602 0)
(0.41719151961877 0.0460583725619556 0)
(0.415538932343836 0.0591399478476271 0)
(0.413476258311301 0.0721631591448254 0)
(0.411005533131406 0.0851151541163115 0)
(0.40812919511161 0.0979831507067619 0)
(0.404850082850274 0.110754449757114 0)
(0.401171432435307 0.123416447537102 0)
(0.397096874250541 0.13595664818362 0)
(0.392630429392976 0.148362676032626 0)
(0.387776505704447 0.16062228783243 0)
(0.382539893421612 0.172723384826307 0)
(0.376925760448571 0.184654024692508 0)
(0.370939647256766 0.196402433329888 0)
(0.364587461417204 0.207957016477524 0)
(0.357875471770402 0.219306371156852 0)
(0.350810302239791 0.230439296925028 0)
(0.343398925294711 0.241344806928411 0)
(0.33564865506942 0.252012138745268 0)
(0.327567140144928 0.262430765006978 0)
(0.319162356000774 0.272590403787276 0)
(0.310442597144185 0.282481028749274 0)
(0.301416468924403 0.292092879040245 0)
(0.292092879040245 0.301416468924403 0)
(0.282481028749274 0.310442597144185 0)
(0.272590403787276 0.319162356000774 0)
(0.262430765006978 0.327567140144928 0)
(0.252012138745268 0.33564865506942 0)
(0.241344806928411 0.343398925294711 0)
(0.230439296925027 0.350810302239791 0)
(0.219306371156852 0.357875471770402 0)
(0.207957016477524 0.364587461417204 0)
(0.196402433329888 0.370939647256766 0)
(0.184654024692508 0.376925760448571 0)
(0.172723384826307 0.382539893421612 0)
(0.16062228783243 0.387776505704447 0)
(0.148362676032626 0.392630429392976 0)
(0.13595664818362 0.397096874250541 0)
(0.123416447537102 0.401171432435307 0)
(0.110754449757114 0.404850082850274 0)
(0.097983150706762 0.40812919511161 0)
(0.0851151541163116 0.411005533131406 0)
(0.0721631591448254 0.413476258311301 0)
(0.0591399478476272 0.415538932343836 0)
(0.0460583725619557 0.41719151961877 0)
(0.0329313432232603 0.418432389231984 0)
(0.0197718146246527 0.41926031659498 0)
(0.00659277363209079 0.419674484643409 0)
(0.438476052925063 0.00688813226871262 0)
(0.438043329998681 0.0206575990512029 0)
(0.437178311191203 0.0344066792774519 0)
(0.435881850171756 0.0481218042652227 0)
(0.434155226390843 0.0617894388419996 0)
(0.432000143817679 0.0753960947025687 0)
(0.429418729258575 0.0889283437203473 0)
(0.426413530258045 0.102372831199323 0)
(0.42298751258468 0.115716289053527 0)
(0.419144057304294 0.128945548901031 0)
(0.414886957443225 0.142047555059555 0)
(0.410220414245069 0.155009377430845 0)
(0.405149033024563 0.167818224261119 0)
(0.399677818622698 0.180461454764987 0)
(0.39381217046754 0.192926591600378 0)
(0.38755787724565 0.205201333182169 0)
(0.380921111189348 0.217273565822366 0)
(0.373908421985466 0.229131375684852 0)
(0.366526730311594 0.240763060542903 0)
(0.358783321006214 0.252157141327875 0)
(0.350685835879436 0.263302373457657 0)
(0.342242266171458 0.274187757933717 0)
(0.333460944666179 0.284802552195785 0)
(0.324350537467742 0.295136280723466 0)
(0.31492003544814 0.305178745374307 0)
(0.305178745374307 0.31492003544814 0)
(0.295136280723466 0.324350537467742 0)
(0.284802552195785 0.333460944666179 0)
(0.274187757933717 0.342242266171458 0)
(0.263302373457657 0.350685835879435 0)
(0.252157141327875 0.358783321006214 0)
(0.240763060542903 0.366526730311594 0)
(0.229131375684852 0.373908421985466 0)
(0.217273565822366 0.380921111189348 0)
(0.205201333182169 0.38755787724565 0)
(0.192926591600378 0.39381217046754 0)
(0.180461454764987 0.399677818622698 0)
(0.167818224261119 0.405149033024563 0)
(0.155009377430845 0.410220414245069 0)
(0.142047555059555 0.414886957443225 0)
(0.128945548901031 0.419144057304294 0)
(0.115716289053527 0.42298751258468 0)
(0.102372831199323 0.426413530258045 0)
(0.0889283437203474 0.429418729258575 0)
(0.0753960947025687 0.432000143817679 0)
(0.0617894388419996 0.434155226390843 0)
(0.0481218042652227 0.435881850171756 0)
(0.0344066792774519 0.437178311191203 0)
(0.0206575990512029 0.438043329998681 0)
(0.00688813226871261 0.438476052925063 0)
(0.459337854175579 0.00721585563106853 0)
(0.458884543170039 0.0216404457148785 0)
(0.457978368522192 0.0360436792914506 0)
(0.456620224517013 0.0504113421081682 0)
(0.454811451478663 0.0647292550164601 0)
(0.452553834447755 0.0789832879649084 0)
(0.449849601419734 0.0931593739439033 0)
(0.446701421146113 0.107243522868083 0)
(0.443112400500736 0.121221835382859 0)
(0.439086081413674 0.135080516581402 0)
(0.434626437375761 0.148805889618548 0)
(0.429737869517244 0.162384409208193 0)
(0.424425202264395 0.175802674990857 0)
(0.418693678578388 0.189047444758219 0)
(0.412548954781123 0.202105647521579 0)
(0.405997094973129 0.214964396411346 0)
(0.399044565049019 0.227611001394821 0)
(0.39169822631644 0.240032981799728 0)
(0.383965328724787 0.252218078631132 0)
(0.375853503710378 0.264154266669585 0)
(0.367370756665151 0.275829766338566 0)
(0.358525459036304 0.287233055329503 0)
(0.349326340064692 0.298352879972896 0)
(0.339782478170115 0.309178266344335 0)
(0.329903291992021 0.319698531094438 0)
(0.319698531094438 0.329903291992021 0)
(0.309178266344335 0.339782478170115 0)
(0.298352879972896 0.349326340064692 0)
(0.287233055329503 0.358525459036304 0)
(0.275829766338566 0.367370756665151 0)
(0.264154266669585 0.375853503710378 0)
(0.252218078631132 0.383965328724787 0)
(0.240032981799728 0.39169822631644 0)
(0.22761100139482 0.399044565049019 0)
(0.214964396411346 0.405997094973129 0)
(0.202105647521579 0.412548954781123 0)
(0.189047444758219 0.418693678578387 0)
(0.175802674990857 0.424425202264395 0)
(0.162384409208193 0.429737869517244 0)
(0.148805889618548 0.434626437375761 0)
(0.135080516581403 0.439086081413674 0)
(0.121221835382859 0.443112400500736 0)
(0.107243522868083 0.446701421146113 0)
(0.0931593739439034 0.449849601419734 0)
(0.0789832879649084 0.452553834447755 0)
(0.0647292550164602 0.454811451478663 0)
(0.0504113421081682 0.456620224517013 0)
(0.0360436792914507 0.457978368522192 0)
(0.0216404457148785 0.458884543170039 0)
(0.00721585563106852 0.459337854175579 0)
(0.482691541452718 0.00758272466725414 0)
(0.48221518317736 0.0227406907679893 0)
(0.481262936734751 0.0378762145524533 0)
(0.479835741877163 0.0529743590860048 0)
(0.477935007073613 0.0680202243228103 0)
(0.475562608119875 0.0829989618103904 0)
(0.472720886287292 0.0978957893432498 0)
(0.469412646012227 0.112696005551129 0)
(0.465641152128424 0.127385004407483 0)
(0.461410126645007 0.141948289643865 0)
(0.456723745073312 0.156371489055993 0)
(0.451586632306155 0.170640368687382 0)
(0.446003858053627 0.184740846876537 0)
(0.439980931839899 0.198659008153858 0)
(0.433523797565986 0.212381116974524 0)
(0.426638827643838 0.225893631273819 0)
(0.419332816707535 0.239183215831516 0)
(0.411612974907806 0.252236755432126 0)
(0.40348692079648 0.265041367808037 0)
(0.394962673807895 0.277584416352754 0)
(0.386048646344682 0.289853522591703 0)
(0.376753635475745 0.301836578398295 0)
(0.367086814254611 0.313521757943179 0)
(0.357057722666736 0.324897529364913 0)