/*--------------------------------*- C++ -*----------------------------------*\
| =========                 |                                                 |
| \\      /  F ield         | foam-extend: Open Source CFD                    |
|  \\    /   O peration     | Version:     4.0                                |
|   \\  /    A nd           | Web:         http://www.foam-extend.org         |
|    \\/     M anipulation  |                                                 |
\*---------------------------------------------------------------------------*/
FoamFile
{
    version     2.0;
    format      ascii;
    class       volScalarField;
    location    "6.57";
    object      p;
}
// * * * * * * * * * * * * * * * * * * * * * * * * * * * * * * * * * * * * * //

dimensions      [1 -1 -2 0 0 0 0];

internalField   nonuniform List<scalar> 
160000
(
2.3706861729925
2.37068649673875
2.37068680340444
2.37068709671375
2.37068739390789
2.37068771877139
2.37068809261388
2.37068852638027
2.37068901598518
2.37068954190711
2.37069007263849
2.37069057020889
2.3706909961682
2.37069131700297
2.37069150838483
2.37069155785818
2.37069146645267
2.37069125004871
2.37069094043474
2.37069057768465
2.37069021125452
2.37068988994003
2.3706896530349
2.37068952271538
2.37068949912071
2.37068956058269
2.37068966999976
2.3706897851758
2.37068986069952
2.37068987945499
2.37068983570063
2.37068974405981
2.37068963258386
2.37068953232854
2.37068946771719
2.37068945175148
2.37068948220386
2.37068955016869
2.37068963724189
2.37068973065516
2.37068982311247
2.37068991390053
2.37069000924169
2.37069011622454
2.37069023645906
2.37069036225222
2.37069047559053
2.37069054876137
2.37069054938455
2.37069044476208
2.37069020722512
2.37068981845536
2.37068927217243
2.37068857590428
2.37068775155845
2.37068683415181
2.37068586937577
2.37068491015665
2.37068401124482
2.3706832232459
2.37068258652334
2.37068212621349
2.37068184921712
2.37068174424488
2.3706817846184
2.37068193308402
2.37068214857461
2.37068239222017
2.37068263270812
2.37068284955069
2.37068303383802
2.37068318665563
2.37068331538442
2.37068342879773
2.37068353276339
2.37068362662775
2.37068370150595
2.37068374194861
2.37068372949973
2.3706836475646
2.37068348678468
2.3706832490358
2.37068294859829
2.37068261024788
2.3706822652038
2.3706819453202
2.37068167702767
2.3706814766201
2.3706813486211
2.37068128695246
2.37068127783716
2.37068130340014
2.3706813447669
2.37068138325893
2.37068139991484
2.37068137401689
2.37068128100592
2.37068109180464
2.37068077393867
2.37068029542575
2.37067963057723
2.37067876672174
2.37067771031079
2.37067649067832
2.37067516097784
2.37067379493164
2.37067248012086
2.37067130923239
2.37067036994181
2.37066973606368
2.37066946025123
2.37066956913447
2.37067006142737
2.37067090771265
2.37067205277614
2.37067341922131
2.37067491366346
2.37067643371696
2.37067787705894
2.37067915120695
2.37068018296077
2.3706809260522
2.37068136548236
2.37068151843053
2.37068142989536
2.37068116461023
2.37068079638274
2.37068039735033
2.37068002861789
2.37067973379013
2.37067953636143
2.37067944106303
2.37067943840373
2.37067951045807
2.37067963675845
2.37067980026621
2.37067998843471
2.37068018857646
2.37068040491357
2.37068063498495
2.37068087776326
2.37068114220034
2.37068142692185
2.37068174059972
2.37068209826547
2.37068251926703
2.37068302430668
2.37068362976743
2.37068434067555
2.37068514443293
2.37068600746158
2.37068687674807
2.37068768713586
2.37068837289629
2.37068888015745
2.37068917650158
2.37068925696904
2.37068914522132
2.37068888955198
2.37068855462548
2.37068820909437
2.37068791729418
2.3706877293885
2.37068767489984
2.37068776198239
2.37068797665716
2.37068828840923
2.37068865696813
2.37068904056139
2.37068940377692
2.37068972261477
2.37068998617958
2.37069019445732
2.37069035328291
2.37069046841276
2.37069054129903
2.37069056767128
2.37069054068687
2.37069045838505
2.37069033200927
2.37069019152401
2.37069008536797
2.37069007250406
2.37069020968231
2.37069053499099
2.37069105154454
2.37069171711279
2.37069244460083
2.37069311509313
2.37069360123199
2.37069379541842
2.37069363697813
2.3706931299291
2.37069234575719
2.37069141247842
2.37069048758267
2.37068972418712
2.3706892376325
2.37068908112436
2.37068923654114
2.370689621992
2.37069011483178
2.37069058219772
2.37069091149259
2.37069103297217
2.37069092973123
2.37069063393587
2.37069021199783
2.37068974448652
2.37068930620971
2.37068895073335
2.37068870349413
2.37068856253958
2.37068850504636
2.37068849782288
2.37068850721631
2.37068850684371
2.37068848203913
2.37068843035841
2.37068835903931
2.37068828082967
2.37068820871188
2.3706881508984
2.37068810775578
2.370688070437
2.37068802229809
2.37068794271676
2.37068781029321
2.37068760810813
2.37068733124184
2.37068698814881
2.37068660080369
2.37068620657608
2.37068585123685
2.37068558031881
2.37068543295721
2.37068543385186
2.37068558726831
2.37068587484919
2.37068625754405
2.37068668123684
2.37068708540463
2.37068741254164
2.37068761683921
2.37068767046387
2.37068756596733
2.37068731471431
2.37068694226168
2.37068648150287
2.37068596674669
2.37068542554779
2.37068487747485
2.37068433195165
2.3706837907304
2.37068325103368
2.37068270988727
2.37068216791678
2.3706816319586
2.37068111610008
2.37068064029568
2.37068022774467
2.37067990159592
2.37067968143493
2.37067958044824
2.37067960261043
2.37067974411524
2.3706799911675
2.37068032330789
2.37068071447711
2.37068113574568
2.37068155814276
2.37068195519514
2.37068230535953
2.37068259399125
2.37068281443697
2.3706829680497
2.37068306218785
2.37068310662087
2.37068310994791
2.37068307631241
2.37068300319665
2.37068288101867
2.37068269575147
2.37068243359955
2.37068208699817
2.37068165957439
2.37068116922611
2.37068064789514
2.37068013759362
2.37067968442609
2.37067933106955
2.37067910936786
2.37067903545324
2.37067910779367
2.37067930861288
2.37067960732644
2.37067996548905
2.37068034109583
2.37068069499847
2.37068099220316
2.37068120590732
2.37068132041755
2.37068133426835
2.37068126294913
2.37068113983852
2.37068101441333
2.37068094673314
2.37068099820195
2.37068121978733
2.37068163992847
2.37068225584866
2.37068302979417
2.37068389220448
2.37068475210671
2.37068551198613
2.37068608515731
2.37068641122705
2.3706864658795
2.37068626438187
2.37068585562881
2.37068531187556
2.37068471426637
2.37068414213367
2.37068365066978
2.37068327395686
2.37068301922455
2.37068287136956
2.37068280083593
2.37068277374379
2.37068276124303
2.37068274697265
2.37068273013034
2.37068272517588
2.37068275748182
2.37068285674619
2.37068304928872
2.37068335114093
2.37068376332098
2.37068427037572
2.37068484164308
2.3706854349108
2.37068600489386
2.37068650848953
2.37068690974828
2.37068718644003
2.37068733164407
2.37068735375109
2.3706872742515
2.37068712369322
2.37068693679799
2.37068674715154
2.37068658258301
2.3706864617148
2.37068639077839
2.37068636788262
2.37068638279836
2.37068641795606
2.37068645629905
2.37068648211929
2.37068648469862
2.37068645897476
2.37068640695455
2.37068633757964
2.37068626747049
2.37068621894648
2.37068621683562
2.37068628356438
2.37068643294972
2.37068666371648
2.37068695532877
2.37068726753629
2.37068754620596
2.37068773716322
2.37068780292804
2.37068773477418
2.37068755852221
2.37068733288074
2.37068713753812
2.37068705320288
2.37068713941384
2.37068741728643
2.37068786216808
2.37068840741353
2.37068895974152
2.37068941932722
2.37068970018132
2.37068974714789
2.37068954390539
2.37068911267477
2.37068850686194
2.37068779959555
2.37068707128897
2.37068639806742
2.37068584280241
2.3706854484748
2.37068523475122
2.37068519796483
2.3706853143414
2.37068554537884
2.37068584571292
2.37068631139361
2.37068649118383
2.37068666437079
2.37068683484737
2.37068701975278
2.37068724379902
2.37068753076885
2.37068789532913
2.37068833775983
2.37068884277104
2.37068938215395
2.37068991998185
2.37069041849241
2.37069084343434
2.3706911677971
2.37069137359266
2.37069145297861
2.37069140944044
2.3706912575981
2.37069102306445
2.37069074176269
2.37069045543738
2.37069020521968
2.37069002424759
2.37068993102703
2.37068992566196
2.37068999096233
2.37069009791855
2.3706902124976
2.3706903083411
2.37069036941126
2.37069039447759
2.37069039358294
2.37069038071158
2.37069036670559
2.37069035332534
2.37069033456107
2.37069029335821
2.37069021642323
2.37069009231105
2.37068992453289
2.37068972941424
2.37068953438897
2.37068937089911
2.37068926485007
2.37068922877138
2.37068925679736
2.37068932444774
2.37068939211834
2.37068941260343
2.37068933898056
2.37068913330172
2.37068877347679
2.3706882566845
2.3706876008218
2.37068684233525
2.37068603179735
2.37068522729828
2.37068448620879
2.37068385756249
2.37068337542741
2.37068305450032
2.3706828891245
2.37068285585427
2.37068291910615
2.37068303764082
2.37068317455938
2.37068330127097
2.37068340184325
2.3706834732764
2.37068352279471
2.37068356305451
2.37068360649521
2.37068366073896
2.37068372536741
2.3706837910401
2.37068384124919
2.3706838560881
2.37068381709561
2.37068371153117
2.37068353588102
2.37068329784583
2.37068301521932
2.3706827126099
2.37068241738779
2.37068215460822
2.37068194212808
2.3706817873511
2.37068168645725
2.37068162612189
2.37068158653707
2.37068154542982
2.37068148198308
2.3706813792834
2.37068122518344
2.37068101151974
2.37068073209014
2.37068038061151
2.37067994964964
2.3706794308351
2.37067881665511
2.37067810348335
2.37067729501301
2.37067640549977
2.37067546241183
2.37067450550006
2.37067358481373
2.37067275769615
2.37067208287264
2.37067161464186
2.37067139681118
2.37067145680287
2.37067180232865
2.3706724162427
2.37067325736005
2.37067426250525
2.37067535237276
2.37067644058429
2.37067744447177
2.37067829647935
2.37067895364492
2.37067940244665
2.37067965864519
2.37067976187299
2.37067976600943
2.37067972759644
2.37067969474787
2.37067969937134
2.37067975398428
2.37067985291643
2.37067997798431
2.37068010603218
2.37068021728895
2.37068030085809
2.37068035705607
2.37068039688384
2.37068043723606
2.37068049463702
2.37068058294001
2.3706807072943
2.37068086541065
2.37068105145053
2.37068125920003
2.37068149060145
2.37068175818868
2.37068208408922
2.3706824948111
2.37068301278177
2.37068364687737
2.3706843851595
2.37068519201909
2.37068601144968
2.37068677669865
2.37068742343459
2.37068790262609
2.37068818950962
2.37068828726742
2.37068822546794
2.37068805365307
2.37068783127767
2.37068761716378
2.37068746025221
2.37068739410759
2.3706874337742
2.3706875759891
2.37068780276689
2.37068808641502
2.37068839659474
2.37068870672547
2.37068900023377
2.37068927113471
2.37068952295699
2.37068976406486
2.3706900008548
2.37069023241134
2.37069044676326
2.37069062248609
2.37069073438543
2.37069076301796
2.3706907047572
2.37069057869389
2.37069042732202
2.37069030988883
2.37069029034348
2.37069042146669
2.37069072863922
2.37069119818206
2.37069177468823
2.37069236830559
2.37069287098739
2.37069317911035
2.37069321647721
2.37069295397252
2.37069241803715
2.37069168841271
2.37069088315682
2.37069013431721
2.37068955967755
2.37068923741802
2.3706891898256
2.37068937989778
2.37068972240516
2.37069010583674
2.37069041942898
2.37069057831087
2.37069054051959
2.370690312396
2.3706899417284
2.37068950137664
2.37068906962136
2.37068871130356
2.37068846476427
2.37068833684375
2.37068830619436
2.37068833274135
2.37068836990113
2.37068837627051
2.37068832483789
2.37068820677988
2.37068803144041
2.37068782258507
2.37068761109451
2.37068742710578
2.37068729248102
2.37068721549385
2.37068718894712
2.370687191785
2.37068719390567
2.37068715986328
2.37068706349413
2.37068689104714
2.37068664542903
2.37068634983437
2.37068604285217
2.37068577042388
2.3706855772056
2.3706854969913
2.37068554494645
2.37068571360875
2.37068597343576
2.37068627780191
2.37068657132292
2.37068679958944
2.37068691856716
2.37068690159628
2.37068674301346
2.37068645720475
2.37068607429637
2.37068563308258
2.37068517272671
2.37068472484111
2.37068430841095
2.37068392772563
2.37068357436459
2.37068323198283
2.37068288292198
2.3706825148867
2.37068212589439
2.37068172606071
2.37068133616526
2.37068098333406
2.37068069506245
2.37068049348807
2.37068039103442
2.37068038809887
2.37068047411972
2.37068063005085
2.37068083226986
2.37068105624103
2.37068128007964
2.37068148698072
2.37068166631136
2.37068181393848
2.37068193173097
2.37068202618867
2.37068210642304
2.3706821807435
2.37068225287749
2.37068231958469
2.37068236969142
2.37068238534239
2.37068234532237
2.37068223056794
2.37068203013333
2.37068174597839
2.37068139526896
2.37068100848303
2.37068062426304
2.37068028207421
2.37068001444773
2.37067984161753
2.37067976907874
2.37067978969624
2.37067988861808
2.37068004957988
2.37068025989618
2.37068051219483
2.37068080275391
2.37068112623599
2.37068146995327
2.37068180987941
2.37068211108209
2.37068233346083
2.37068244279457
2.37068242209872
2.37068228156605
2.37068206235753
2.37068183189157
2.37068167087863
2.37068165512823
2.37068183608993
2.37068222638941
2.37068279415522
2.37068346785018
2.37068415081907
2.37068474341919
2.3706851635699
2.37068536378704
2.37068533911665
2.37068512344311
2.37068478015136
2.37068438534113
2.37068399921168
2.37068367962589
2.37068344859581
2.37068330482818
2.37068322906469
2.37068319348051
2.3706831720644
2.37068314839002
2.37068311938475
2.37068309507369
2.37068309475085
2.37068314150314
2.37068325638283
2.37068345353223
2.37068373736725
2.37068410141537
2.37068452936628
2.37068499681359
2.37068547435305
2.37068593122091
2.37068633808729
2.37068667005589
2.37068690934917
2.37068704738642
2.37068708592245
2.37068703680872
2.37068692076422
2.37068676490018
2.37068659869042
2.37068644985887
2.37068634018747
2.37068628360385
2.37068628280146
2.37068633104023
2.37068641525197
2.37068651820121
2.37068662224515
2.37068671298756
2.37068678288757
2.37068683189741
2.37068686739331
2.37068690229885
2.37068695145775
2.37068702709508
2.37068713352141
2.3706872631093
2.37068739567832
2.37068750133613
2.37068754660924
2.3706875041949
2.37068736431313
2.37068714360332
2.37068688609648
2.37068665656171
2.37068652794856
2.37068656422842
2.37068680315483
2.37068724448715
2.37068784695
2.37068853545359
2.37068921539704
2.37068979415025
2.37069019683024
2.37069037651233
2.37069032120145
2.37069005004068
2.37068960496963
2.37068904081249
2.37068841600476
2.3706877862477
2.37068720043349
2.37068669844568
2.37068630903183
2.37068604835024
2.37068591838333
2.37068590723105
2.3706859906654
2.37068613627585
2.37068657783706
2.37068668532422
2.37068678818788
2.37068688625414
2.37068699211048
2.37068712721607
2.37068731510703
2.37068757412517
2.37068791196436
2.37068832318192
2.37068879014381
2.37068928636618
2.37068978122335
2.37069024463937
2.37069064999106
2.37069097518184
2.37069120371467
2.37069132542029
2.37069133758998
2.37069124721926
2.37069107270103
2.37069084384288
2.37069059862669
2.37069037771507
2.3706902172367
2.37069014116653
2.37069015744605
2.37069025689049
2.37069041656515
2.37069060639146
2.37069079573726
2.37069096029523
2.37069108360769
2.37069115546308
2.37069117004799
2.37069112156422
2.37069100454818
2.37069081275765
2.37069054430685
2.37069020660919
2.3706898180594
2.3706894099071
2.37068902245019
2.37068869768856
2.37068846999041
2.37068835764989
2.37068835655505
2.37068843992835
2.3706885615867
2.37068866481727
2.37068869106891
2.37068859211252
2.3706883379526
2.37068792186845
2.37068736176104
2.37068669700714
2.37068598188513
2.3706852770222
2.37068463963675
2.37068411484644
2.37068372952551
2.37068348922336
2.37068337927782
2.37068336938
2.37068342103682
2.37068349434142
2.37068356027205
2.37068360115368
2.37068361404423
2.37068360848286
2.37068360124207
2.3706836096033
2.37068364499871
2.37068370928314
2.37068379325969
2.37068387848617
2.37068394171159
2.37068395992995
2.37068391593523
2.37068380127252
2.370683618046
2.37068337863707
2.3706831032113
2.37068281595811
2.37068254169066
2.37068230177862
2.37068211067226
2.37068197391277
2.37068188729574
2.37068183776013
2.37068180541785
2.37068176634961
2.3706816964039
2.37068157422446
2.37068138359307
2.37068111430358
2.37068076208272
2.37068032657928
2.37067981133712
2.37067922106748
2.37067856181857
2.3706778406683
2.37067706733661
2.37067625592104
2.37067542671562
2.37067460740082
2.37067383298456
2.37067314479004
2.37067258807406
2.37067220727431
2.37067204009421
2.37067211175203
2.37067242820668
2.3706729725674
2.37067370333068
2.37067455999494
2.37067546607542
2.37067634426733
2.37067712736403
2.37067776925548
2.37067825226326
2.37067858771505
2.37067881139438
2.37067897263109
2.37067912186713
2.37067929897597
2.37067952452098
2.37067979681585
2.37068009465016
2.37068038432577
2.37068062991123
2.37068080331727
2.3706808917675
2.37068090111184
2.37068085506516
2.37068078775876
2.37068073641585
2.37068073214006
2.37068079256931
2.3706809203759
2.37068110411292
2.37068132310464
2.37068155807071
2.37068179887929
2.37068204996202
2.37068233062337
2.37068266971842
2.37068309618116
2.37068362830125
2.37068426502218
2.37068498164511
2.37068573190316
2.37068645645228
2.37068709518451
2.37068759905023
2.37068793978685
2.37068811415502
2.37068814300982
2.37068806595782
2.37068793221596
2.37068779168903
2.37068768555601
2.37068764155402
2.37068767245335
2.37068777550236
2.3706879369962
2.37068813718987
2.37068835667571
2.37068858110235
2.3706888055979
2.37068903299095
2.37068927111976
2.37068952759056
2.3706898043999
2.37069009367418
2.37069037681441
2.37069062795853
2.37069081989144
2.37069093186153
2.37069095736439
2.37069090859871
2.37069081582868
2.37069072202899
2.37069067441957
2.37069071427508
2.37069086636884
2.37069113165132
2.37069148507105
2.3706918782035
2.3706922465034
2.37069252050288
2.37069263910341
2.3706925621695
2.37069228053622
2.3706918205996
2.37069124224811
2.37069062923488
2.37069007334377
2.37068965523855
2.37068942641343
2.37068939705887
2.37068953309398
2.37068976503594
2.37069000407146
2.37069016459463
2.37069018424294
2.37069003778755
2.37068974049677
2.37068934190721
2.37068891050745
2.37068851649021
2.37068821446423
2.37068803204438
2.37068796715084
2.37068799188557
2.37068806261309
2.37068813210541
2.3706881606653
2.37068812382648
2.3706880161025
2.37068784996825
2.37068765097409
2.37068745050535
2.37068727751022
2.37068715151821
2.3706870780589
2.37068704788064
2.37068703847953
2.37068702111764
2.37068696667839
2.3706868556669
2.37068668242197
2.37068645861123
2.37068621093847
2.3706859753343
2.37068578910076
2.37068568224622
2.37068567044694
2.37068575091134
2.37068590201547
2.37068608744722
2.37068626293629
2.37068638466715
2.37068641739453
2.37068634050433
2.37068615120206
2.37068586415861
2.37068550797721
2.37068511746259
2.37068472811789
2.37068436654948
2.37068404619962
2.3706837655296
2.37068351018271
2.37068325842287
2.37068298842812
2.37068268559071
2.37068234765311
2.37068198611671
2.37068162427942
2.37068129187001
2.37068101797405
2.37068082483929
2.37068072335366
2.370680711433
2.37068077553596
2.37068089555769
2.37068104747136
2.37068120964861
2.37068136528177
2.37068150403488
2.37068162221474
2.37068172172013
2.37068180830032
2.37068188926615
2.37068197091283
2.37068205529004
2.37068213780776
2.37068220692931
2.37068224490039
2.37068223197084
2.37068215119057
2.37068199406097
2.37068176481204
2.37068148179809
2.37068117557239
2.37068088298769
2.37068063893565
2.37068046830606
2.370680380024
2.37068036582355
2.37068040388474
2.37068046680463
2.37068053149965
2.37068058768755
2.37068064251461
2.3706807184282
2.37068084850104
2.37068105683327
2.37068135385021
2.37068172471825
2.37068212822958
2.370682503129
2.37068278413468
2.37068291868471
2.37068288394236
2.37068269661786
2.37068241284455
2.37068211708409
2.37068190187007
2.37068184554832
2.37068199183547
2.37068233850608
2.37068283788137
2.37068340896301
2.37068395767968
2.37068439964186
2.37068467862134
2.37068477536488
2.37068471044513
2.37068452969496
2.37068429028985
2.37068404922721
2.37068383964745
2.37068367752568
2.37068355877051
2.37068346755808
2.37068338635053
2.37068330457322
2.3706832236741
2.37068315696653
2.37068312572722
2.37068315271699
2.37068325589961
2.37068344387797
2.37068371396274
2.37068405392592
2.37068444450146
2.37068486328152
2.37068528742849
2.37068569728274
2.37068607538913
2.37068640700637
2.37068668002084
2.37068688437129
2.37068701306626
2.37068706356133
2.37068703899688
2.37068694947695
2.37068681180647
2.37068664803651
2.37068648286234
2.3706863400589
2.37068623926111
2.37068619158005
2.37068619897904
2.37068625576386
2.37068634903492
2.37068646299027
2.37068658343932
2.3706867013294
2.37068681505676
2.37068693029257
2.37068705678907
2.37068720285394
2.37068736968842
2.37068754590453
2.37068770569695
2.37068781318218
2.37068783096436
2.37068773195171
2.37068751060618
2.37068719137992
2.37068682942044
2.37068650183393
2.37068629170315
2.37068626898127
2.37068647283313
2.37068690056506
2.37068750633368
2.37068821090096
2.37068891877415
2.37068953808714
2.37068999723896
2.37069025551656
2.37069030554424
2.37069016727657
2.37068987821202
2.37068948266503
2.37068902335257
2.37068853710595
2.37068805401096
2.37068759943529
2.3706871960889
2.37068686263513
2.37068661484441
2.37068645994907
2.37068639576376
2.37068640929186
2.37068647847916
2.37068693375743
2.37068698231688
2.37068702919633
2.37068706902036
2.37068710668623
2.37068715614329
2.37068723649919
2.37068736651071
2.37068755982769
2.37068782305047
2.37068815341427
2.37068854059908
2.3706889685782
2.37068941810729
2.37068986769414
2.37069029331129
2.37069066890086
2.37069096772852
2.37069116529011
2.37069124428963
2.3706912013605
2.3706910508501
2.37069082611524
2.37069057539975
2.37069035353872
2.37069021091177
2.37069018257194
2.37069028080146
2.37069049322964
2.3706907863351
2.37069111384459
2.37069142562625
2.37069167685417
2.37069183277307
2.37069187095021
2.37069178006828
2.37069155814241
2.37069121129692
2.37069075414346
2.37069021094826
2.37068961599899
2.37068901383432
2.37068845512845
2.37068798949165
2.37068765716326
2.37068747987278
2.3706874544053
2.37068755111996
2.37068771779504
2.37068789090916
2.37068800136654
2.37068799320853
2.37068783149233
2.3706875075549
2.3706870407591
2.370686473642
2.37068586332902
2.37068527087491
2.37068475051239
2.37068434077447
2.37068405923325
2.37068390154489
2.37068384464453
2.37068385329767
2.37068388876033
2.37068391688173
2.37068391646771
2.37068388131217
2.37068382006318
2.37068375204199
2.37068370006309
2.37068368262788
2.37068370842732
2.37068377293263
2.37068385885063
2.37068394075687
2.37068399079198
2.37068398598337
2.37068391276638
2.37068376885049
2.3706835633637
2.37068331456464
2.3706830457034
2.37068278093036
2.37068254203148
2.37068234539887
2.37068220034293
2.37068210793328
2.37068206070268
2.37068204290185
2.37068203213087
2.37068200163577
2.37068192344365
2.37068177229945
2.37068152923556
2.37068118420128
2.37068073785162
2.37068019913567
2.3706795853588
2.37067891796666
2.370678218734
2.37067750740647
2.37067679990935
2.37067610906132
2.37067544577125
2.3706748221462
2.37067425391228
2.37067376196739
2.37067337310242
2.37067311727459
2.37067302291688
2.37067311082588
2.37067338357238
2.37067382629081
2.37067440125887
2.3706750543477
2.37067572120962
2.37067634105564
2.37067686840786
2.37067728291862
2.37067759301376
2.37067783249263
2.37067805065739
2.3706782989238
2.37067861675076
2.37067902109522
2.37067950202422
2.370680024377
2.37068053623871
2.37068098107987
2.37068131106665
2.3706814980923
2.37068153992613
2.37068146111121
2.37068130752682
2.37068113605018
2.37068100205091
2.37068094820479
2.37068099627742
2.3706811447275
2.37068137151473
2.37068164294331
2.37068192505071
2.37068219475628
2.37068244720424
2.37068269709169
2.37068297351871
2.37068331015347
2.37068373372053
2.37068425415812
2.37068485929136
2.37068551588791
2.37068617593829
2.37068678689113
2.37068730372655
2.37068769670515
2.37068795601178
2.37068809180937
2.37068813005441
2.37068810532179
2.37068805333455
2.37068800435371
2.37068797940738
2.37068798873563
2.37068803314982
2.37068810736504
2.3706882040065
2.37068831794878
2.37068844836278
2.37068860104058
2.37068878457982
2.37068900713497
2.37068927196828
2.37068957454489
2.37068990087028
2.37069022909824
2.37069053370357
2.37069079067148
2.37069098252016
2.37069110197675
2.37069115323989
2.37069115054681
2.37069111512086
2.3706910716838
2.3706910448567
2.37069105596304
2.37069112037388
2.37069124496263
2.37069142571519
2.37069164539814
2.37069187258432
2.37069206405858
2.37069217096888
2.37069214881043
2.37069196965211
2.37069163265233
2.37069116955224
2.37069064196329
2.37069012935146
2.3706897105128
2.37068944343464
2.37068934897559
2.37068940495479
2.3706895513367
2.37068970708254
2.3706897924295
2.3706897501018
2.37068955678673
2.37068923366192
2.37068883192297
2.37068842054724
2.37068806699703
2.37068781978859
2.37068769977438
2.37068769678894
2.37068777656688
2.37068789171593
2.37068799368
2.37068804369837
2.37068802004906
2.37068792056616
2.3706877606165
2.37068756744024
2.37068737249016
2.37068720346149
2.37068707775949
2.37068699901543
2.37068695708466
2.37068693181756
2.3706868977264
2.37068683268545
2.37068672385287
2.37068657130291
2.37068638800586
2.37068619659765
2.37068602366644
2.37068589292755
2.37068581945041
2.37068580526856
2.37068583856852
2.37068589570557
2.37068594611734
2.37068595854081
2.37068590742823
2.37068577812168
2.3706855696161
2.37068529497049
2.37068497848832
2.37068465025074
2.37068433872112
2.37068406473104
2.37068383642588
2.37068364776819
2.37068348091003
2.37068331171706
2.37068311712298
2.37068288225982
2.37068260520713
2.37068229781256
2.37068198322117
2.37068169012205
2.37068144558035
2.37068126916548
2.37068116875342
2.37068114019106
2.37068116945958
2.37068123675737
2.37068132233863
2.37068141001989
2.37068149002523
2.37068155949826
2.37068162159665
2.37068168333526
2.37068175288164
2.37068183618665
2.37068193415873
2.37068204016142
2.37068214007591
2.37068221357878
2.37068223743027
2.37068219160475
2.3706820655962
2.3706818632626
2.37068160492299
2.37068132484743
2.3706810648792
2.37068086551124
2.3706807552843
2.3706807426782
2.37068081334307
2.37068093291707
2.37068105635123
2.37068114080261
2.37068115913926
2.37068110973295
2.37068101910486
2.37068093675554
2.3706809215975
2.37068102642152
2.37068127891778
2.37068167119388
2.37068215673136
2.37068265847925
2.37068308647079
2.37068335966251
2.37068342738886
2.37068328362711
2.37068297113683
2.37068257171861
2.37068218754127
2.37068191618873
2.37068182739345
2.37068194720275
2.37068225415712
2.3706826878437
2.37068316635318
2.37068360808624
2.37068395083779
2.37068416357586
2.37068424798787
2.37068423123283
2.37068415169698
2.37068404699068
2.37068394109308
2.3706838430893
2.37068374900277
2.3706836494609
2.37068353858992
2.37068342044924
2.37068331113578
2.37068323577494
2.37068322210106
2.37068329255927
2.37068345800269
2.37068371462519
2.37068404498865
2.37068442278581
2.37068481887766
2.37068520759719
2.37068556963062
2.3706858953568
2.37068618128519
2.37068642773052
2.37068663516605
2.37068680163656
2.37068692218181
2.37068699030274
2.37068700075932
2.37068695248277
2.37068685097995
2.37068670939598
2.37068654751207
2.37068638871309
2.37068625613006
2.3706861681011
2.37068613465382
2.37068615714704
2.37068622798034
2.37068633517563
2.37068646630435
2.3706866134008
2.37068677543635
2.37068695767208
2.37068716713375
2.37068740541948
2.37068766149596
2.37068790723987
2.37068809892165
2.37068818591696
2.37068812486704
2.37068789590783
2.37068751541368
2.37068704048313
2.37068656129196
2.37068618310631
2.37068600192315
2.37068608021132
2.37068643022667
2.37068700986379
2.37068773218513
2.37068848644294
2.37068916377623
2.37068968069803
2.37068999057567
2.37069008831715
2.37069000465165
2.37068978894333
2.37068949432924
2.37068916536225
2.37068883148878
2.37068850731607
2.37068819754802
2.37068790371204
2.37068762982649
2.37068738429186
2.37068717895885
2.37068702517376
2.37068692949848
2.37068689028778
2.37068689719086
2.37068730960782
2.37068732629171
2.37068734735942
2.37068736215108
2.3706873654327
2.37068735919731
2.37068735228257
2.37068735840399
2.3706873941109
2.37068747602375
2.37068761875202
2.37068783300312
2.37068812406403
2.37068849032817
2.37068892115367
2.37068939475248
2.37068987759532
2.37069032648046
2.37069069414573
2.37069093831773
2.37069103115835
2.37069097096783
2.37069078426355
2.37069052440988
2.37069026216841
2.37069007084961
2.3706900097663
2.3706901102236
2.37069036944985
2.37069075115013
2.37069119474489
2.37069162818645
2.37069198177912
2.37069220097189
2.37069225029026
2.37069211590128
2.37069180250512
2.3706913295333
2.3706907274679
2.37069003544764
2.37068930019577
2.37068857438058
2.37068791315727
2.37068736841788
2.37068698062792
2.37068677110837
2.37068673560758
2.37068684256736
2.37068703671972
2.37068724886652
2.37068740722144
2.37068745242461
2.37068734832882
2.37068708790529
2.37068669327382
2.370686209457
2.37068569414841
2.37068520561344
2.37068479159089
2.37068448133356
2.37068428218372
2.37068418099294
2.37068414945466
2.37068415208087
2.37068415494219
2.37068413302207
2.37068407563999
2.37068398704332
2.37068388424736
2.37068379097549
2.37068372995416
2.37068371492032
2.37068374870087
2.37068381973822
2.3706839027468
2.37068396744161
2.37068398520194
2.37068393558384
2.3706838108812
2.37068361707282
2.3706833722337
2.37068310147598
2.37068283243358
2.37068259008544
2.37068239346116
2.37068225371556
2.37068217337839
2.37068214662761
2.37068215995721
2.37068219247682
2.37068221774523
2.37068220592611
2.37068212641259
2.37068195190103
2.37068166283974
2.37068125110428
2.37068072166044
2.3706800928934
2.3706793943518
2.3706786614309
2.37067792980344
2.37067723027547
2.37067658488856
2.37067600564942
2.37067549598699
2.37067505485052
2.37067468122652
2.37067437778249
2.37067415402193
2.37067402553114
2.37067400960088
2.37067411791619
2.3706743531458
2.37067469804336
2.3706751223664
2.37067557751013
2.37067601930346
2.37067640724683
2.37067671936811
2.37067695960915
2.37067715738173
2.37067735970245
2.3706776191129
2.37067797898711