/*--------------------------------*- C++ -*----------------------------------*\
| =========                 |                                                 |
| \\      /  F ield         | foam-extend: Open Source CFD                    |
|  \\    /   O peration     | Version:     4.0                                |
|   \\  /    A nd           | Web:         http://www.foam-extend.org         |
|    \\/     M anipulation  |                                                 |
\*---------------------------------------------------------------------------*/
FoamFile
{
    version     2.0;
    format      ascii;
    class       volScalarField;
    location    "6.57";
    object      rho;
}
// * * * * * * * * * * * * * * * * * * * * * * * * * * * * * * * * * * * * * //

dimensions      [1 -3 0 0 0 0 0];

internalField   nonuniform List<scalar> 
160000
(
2.36726090856042
2.36726130217307
2.36726167957825
2.36726204841232
2.36726242927345
2.3672628403959
2.36726329986783
2.36726381431445
2.36726437236578
2.3672649291555
2.36726547232016
2.36726599032541
2.36726643478484
2.3672667594911
2.36726694500662
2.36726699026339
2.36726688388922
2.36726665038044
2.3672662975984
2.36726587091105
2.36726542093031
2.36726499574647
2.36726463605064
2.36726437467886
2.36726422467722
2.36726418144597
2.3672642256281
2.36726432192341
2.36726442029644
2.36726449960467
2.3672645601481
2.3672645996406
2.367264621939
2.36726463797449
2.36726466806729
2.36726473083678
2.36726481288423
2.36726490352299
2.36726501078103
2.36726511513687
2.36726519407217
2.36726528978675
2.36726542721465
2.36726560166819
2.3672658036364
2.36726602272203
2.36726623703277
2.36726641177468
2.36726650734014
2.36726648361693
2.36726630552954
2.36726595008063
2.36726539679422
2.36726464471666
2.36726371751778
2.36726264758086
2.36726148222066
2.36726027945926
2.36725910996041
2.36725803540476
2.36725711128828
2.36725638019747
2.36725586977911
2.36725559477785
2.36725554938611
2.36725568188551
2.36725599248915
2.36725643923672
2.36725696867254
2.3672575337175
2.36725809685254
2.36725862913712
2.36725910760098
2.36725951181259
2.36725982227388
2.36726002204708
2.36726010512967
2.36726007575556
2.36725993552602
2.36725968349145
2.36725932408407
2.36725887431057
2.36725836523581
2.36725783966762
2.36725734825276
2.36725694348952
2.36725667196369
2.36725656991182
2.36725665849304
2.36725693807075
2.3672573901729
2.36725798035767
2.3672586599323
2.36725936582838
2.36726002115105
2.36726053730358
2.36726081402252
2.36726074018481
2.36726020928695
2.36725914699366
2.36725751254856
2.36725530482766
2.36725257235242
2.36724942071309
2.36724600969721
2.36724254139257
2.36723924317754
2.36723634723342
2.36723406795289
2.36723258025674
2.36723200073768
2.3672323735986
2.36723367687781
2.36723581471764
2.36723862878929
2.36724191532313
2.36724544540223
2.36724898535186
2.36725231695411
2.36725525535858
2.36725766327534
2.3672594613338
2.36726063395801
2.36726122218515
2.36726129689745
2.36726094189329
2.36726031230474
2.36725954348411
2.36725873801282
2.36725797470365
2.36725730921503
2.36725676882415
2.36725635870437
2.36725607021455
2.3672558871747
2.36725579282161
2.36725577503023
2.36725582922527
2.36725596912246
2.36725619844957
2.36725649516079
2.36725683885261
2.36725721170911
2.36725763072009
2.36725812399225
2.36725870041147
2.36725934924875
2.367260055456
2.36726079780273
2.36726154071034
2.36726226140657
2.36726292282142
2.36726348138329
2.36726389824709
2.36726414701888
2.36726422012443
2.36726413271603
2.36726392281653
2.36726364583383
2.36726335582387
2.36726310214728
2.36726293725863
2.36726289709573
2.36726299361501
2.36726321933405
2.36726354858542
2.36726394430736
2.36726436407053
2.36726476568137
2.36726510868988
2.36726536926691
2.36726554265981
2.36726564791859
2.36726568787366
2.36726566599607
2.36726561061746
2.36726554116508
2.36726545720002
2.36726536098206
2.36726524699192
2.36726517747609
2.3672651694755
2.36726525059055
2.36726544577996
2.36726577045504
2.3672662362708
2.36726679737865
2.36726737250948
2.367267866605
2.36726819615584
2.36726829691711
2.36726813477587
2.3672677105133
2.36726708160208
2.36726635595767
2.36726565408668
2.36726508937583
2.36726474247813
2.36726464328006
2.36726474962815
2.36726501601827
2.36726533776202
2.36726559260995
2.36726567755008
2.36726554029969
2.36726518201286
2.36726464420061
2.36726399486732
2.36726331544469
2.36726268454406
2.36726216642362
2.36726180542056
2.36726161403921
2.3672615622496
2.36726165883769
2.36726186764141
2.36726214656426
2.36726245921129
2.36726277584128
2.36726307308687
2.36726333310561
2.36726354196261
2.3672636885495
2.36726376822035
2.36726378065751
2.36726367425923
2.3672634816788
2.36726320040416
2.36726283417259
2.36726240036644
2.36726191851257
2.36726145006851
2.36726105429999
2.36726067559978
2.36726045398881
2.36726041846551
2.36726056394189
2.3672608826522
2.36726134820412
2.36726191446018
2.3672625222556
2.36726311045521
2.36726362367589
2.36726401063586
2.3672642293423
2.36726428324161
2.36726418113137
2.36726393595453
2.36726356954662
2.36726310817725
2.3672625754563
2.36726198928952
2.36726135308317
2.36726067238556
2.36725995255208
2.36725920018482
2.36725842599569
2.36725764885397
2.3672568955467
2.3672561986562
2.36725559782763
2.36725513594462
2.36725484245099
2.36725472268505
2.36725478139829
2.36725503419836
2.36725547229497
2.36725606925216
2.36725678174228
2.36725755907942
2.36725835839062
2.36725913054689
2.36725983378911
2.36726043563572
2.3672609118818
2.36726124523533
2.36726142821211
2.36726146202214
2.36726134939905
2.36726112562462
2.36726081033813
2.36726040816126
2.3672599225439
2.36725936461379
2.36725875066308
2.36725809852096
2.36725743035291
2.36725677673857
2.36725617361322
2.36725565317276
2.36725523653459
2.36725493228339
2.36725473761852
2.36725465122432
2.36725466429808
2.36725475346322
2.36725489225915
2.36725505590413
2.3672552272882
2.36725539226573
2.36725553768344
2.36725565215894
2.36725575219499
2.36725585242493
2.36725597268082
2.36725614198928
2.36725639737873
2.36725677654345
2.36725730654417
2.36725799795021
2.36725883398387
2.36725977171335
2.36726075187293
2.36726169777203
2.36726251691062
2.36726314130223
2.3672635287228
2.36726366032265
2.36726354749731
2.36726322383795
2.36726273242065
2.36726212581569
2.36726146985199
2.36726081392161
2.36726019769233
2.36725962675776
2.36725911201285
2.36725865063648
2.36725823740738
2.36725787252701
2.36725756494583
2.36725733312427
2.36725720323093
2.36725720336822
2.36725735434239
2.36725766453369
2.36725814138062
2.36725877263462
2.36725952794293
2.36726036745619
2.36726124013539
2.36726209251935
2.36726287315714
2.36726353680019
2.36726405160798
2.36726440129894
2.36726458561646
2.36726461816096
2.36726452214544
2.3672643233996
2.36726404169507
2.36726372021351
2.36726338735842
2.36726306566931
2.3672627725815
2.36726251850236
2.36726230670407
2.36726213973185
2.36726201719753
2.3672619308639
2.36726186920827
2.36726183241855
2.36726182699243
2.36726182029731
2.36726185053882
2.36726192169191
2.36726205288362
2.36726224044869
2.3672624721692
2.36726273555316
2.36726301375516
2.36726328909199
2.3672635169298
2.3672636617035
2.36726371290295
2.36726368562716
2.36726361620126
2.36726355510728
2.36726355299814
2.36726364004353
2.36726382564107
2.36726408398191
2.36726435433474
2.36726456535874
2.36726465127298
2.3672645623089
2.36726427510371
2.3672637928985
2.36726315475875
2.3672624195986
2.36726165715946
2.36726094009782
2.36726033313589
2.36725988204487
2.36725960984243
2.36725952004429
2.36725959662477
2.36725981127285
2.36726012957254
2.36726050865119
2.36729433510173
2.36729453720299
2.367294738846
2.36729495065021
2.36729519401681
2.36729547416531
2.36729581904847
2.36729623532724
2.36729669110661
2.36729720463647
2.36729773932081
2.3672982567991
2.36729872624213
2.36729911862998
2.36729940950426
2.36729958015494
2.36729963379778
2.36729955908819
2.36729938303992
2.36729911935053
2.36729880367925
2.36729847329651
2.36729815925906
2.36729790238923
2.36729772628056
2.3672976379051
2.36729763044248
2.36729768603679
2.36729777925938
2.36729787791045
2.36729795891874
2.36729801510074
2.36729804686675
2.3672980585071
2.36729805712775
2.36729804708173
2.36729804313989
2.3672980179101
2.36729799124416
2.36729793997024
2.36729784733237
2.36729775119238
2.36729768843981
2.36729767447106
2.36729771894863
2.36729782214803
2.36729796898184
2.36729813043379
2.36729826708492
2.36729833268813
2.3672982835606
2.3672980818664
2.36729770833519
2.36729716022088
2.36729644861508
2.36729560684003
2.36729469755512
2.36729372306468
2.36729280833551
2.36729199216459
2.36729131694518
2.36729081331138
2.36729049434942
2.36729035473919
2.36729037928525
2.36729054981576
2.36729082384908
2.36729116418274
2.36729153961832
2.36729192406758
2.36729229700833
2.36729264308186
2.36729294973686
2.36729320414547
2.36729339339471
2.36729350084709
2.36729352567596
2.36729345872964
2.36729329211246
2.36729302566161
2.36729266934973
2.3672922440954
2.36729178045349
2.36729131643168
2.36729089460944
2.36729055692078
2.36729033749119
2.36729025895742
2.36729032772817
2.36729053204796
2.36729084579048
2.36729123352801
2.36729165428783
2.36729206271892
2.36729240847548
2.36729263628442
2.36729268858126
2.36729251012624
2.36729205061097
2.36729126599439
2.36729013041408
2.36728864617255
2.36728684639418
2.36728479390651
2.36728258344171
2.36728033593968
2.36727818984515
2.3672762902876
2.36727477548104
2.36727376325241
2.36727333820784
2.36727354193133
2.36727436279541
2.36727574191549
2.36727757440128
2.36727972200406
2.3672820268381
2.36728432698213
2.36728647256799
2.36728834082817
2.3672898479312
2.36729095511887
2.36729166817425
2.3672920315666
2.36729210839422
2.36729198577839
2.3672917380477
2.3672914375896
2.36729113581308
2.36729084727457
2.36729056942563
2.36729031448744
2.36729008972769
2.36728988907886
2.36728971030503
2.36728956048566
2.36728945558839
2.36728941119738
2.36728944308452
2.36728956329856
2.36728976719477
2.36729003072261
2.36729035588266
2.36729073750428
2.36729117280692
2.36729166358511
2.36729221233775
2.36729281642163
2.36729346332662
2.36729413293105
2.3672947886639
2.36729538688509
2.36729588144352
2.36729623233898
2.36729641606294
2.36729643187673
2.36729630233285
2.36729606936757
2.36729578963088
2.36729552821854
2.3672953360873
2.36729524335106
2.36729527208652
2.36729542776576
2.36729569590967
2.36729604754881
2.36729644555901
2.36729685167129
2.36729723290986
2.36729757075542
2.36729785526864
2.3672980914022
2.36729829039434
2.36729845171918
2.36729858013638
2.36729868733942
2.36729876744685
2.3672988170547
2.36729881701852
2.36729878091649
2.36729871702897
2.36729865317451
2.36729861953408
2.36729863541003
2.36729876099476
2.36729899964737
2.36729933255536
2.36729971692939
2.36730008946673
2.36730037873889
2.36730051901121
2.36730045954515
2.36730018670868
2.36729971315781
2.36729911572718
2.36729848800312
2.36729792785525
2.3672975189547
2.36729729926117
2.36729728599671
2.3672974357114
2.3672976787013
2.36729791828842
2.36729805424219
2.36729801916921
2.36729779030397
2.36729738661224
2.36729685929825
2.36729627927648
2.36729572523878
2.36729526598747
2.36729494183666
2.36729478131031
2.36729478095736
2.36729490833431
2.36729511622683
2.367295357746
2.36729559224788
2.36729579069736
2.36729593757029
2.36729602975581
2.3672960733928
2.36729607977688
2.367296057337
2.36729601053874
2.36729598737488
2.3672958989389
2.3672957838194
2.36729562185694
2.36729540504688
2.36729513106348
2.36729481248657
2.36729448824471
2.36729422714334
2.36729404448622
2.36729397089648
2.36729402895736
2.3672942178798
2.36729451150596
2.36729488745123
2.36729529623928
2.36729568422968
2.36729600823668
2.36729622561913
2.36729629465168
2.36729622934074
2.36729604311035
2.36729575532895
2.36729539828464
2.36729500627141
2.36729460488386
2.36729420757284
2.36729381666388
2.36729342462884
2.36729301961353
2.36729259107214
2.3672921345921
2.36729165491029
2.36729116678583
2.36729069415297
2.36729026893741
2.36728992816716
2.36728970421568
2.36728957186883
2.36728959133924
2.36728974351457
2.36729000587548
2.36729035927917
2.36729077516631
2.3672912042503
2.36729164353396
2.36729206443992
2.36729244476021
2.36729277488096
2.36729305658179
2.36729327656407
2.36729339624378
2.36729345632336
2.36729344046419
2.36729336077653
2.3672932133469
2.36729298156138
2.36729265669215
2.36729224842374
2.36729177567799
2.36729126029825
2.3672907333054
2.36729022970816
2.36728978380217
2.36728942364838
2.36728916399885
2.36728900286837
2.36728892943317
2.36728893076554
2.36728899437297
2.36728910528047
2.36728925615876
2.36728944489981
2.36728967384818
2.367289938868
2.36729021512595
2.36729049795227
2.36729074962558
2.36729095001264
2.36729105355941
2.36729109145747
2.36729108604127
2.36729108531731
2.36729114104816
2.36729130820168
2.36729162603757
2.36729210139957
2.36729270520871
2.36729338001334
2.36729405237839
2.36729464306383
2.36729508583328
2.36729533748721
2.36729539797871
2.36729528518295
2.3672950420544
2.36729472089894
2.36729435831826
2.36729399539348
2.36729364826883
2.36729329822174
2.36729296244592
2.36729262976081
2.36729229494835
2.36729196288299
2.36729165109907
2.36729138564238
2.367291196948
2.36729111478353
2.36729116423449
2.36729135953351
2.3672916994712
2.3672921700369
2.36729274486908
2.36729339394128
2.36729407750515
2.36729475887173
2.36729540005003
2.36729596501971
2.36729642502699
2.36729676157756
2.36729696799816
2.36729704908064
2.36729701943564
2.36729690149831
2.36729671988114
2.36729649897759
2.3672962501294
2.36729600957324
2.36729579042041
2.36729560270889
2.36729544957808
2.36729532770351
2.36729523072636
2.36729515595457
2.36729510400827
2.3672950733249
2.36729505967785
2.3672950759069
2.36729511878456
2.36729519464481
2.36729530436256
2.36729544033349
2.36729558182466
2.36729571092531
2.36729580811373
2.36729585521607
2.36729584612327
2.36729578756761
2.36729570502005
2.36729563960743
2.36729563987856
2.36729575191152
2.36729599302919
2.36729636168689
2.36729682688016
2.3672973230504
2.36729777165174
2.36729809930235
2.36729825262907
2.36729820966036
2.3672979859655
2.36729756200899
2.3672970244194
2.36729641691282
2.3672957939294
2.36729520656091
2.36729469566097
2.36729428948914
2.36729400419116
2.36729383691613
2.36729379302127
2.36729383556132
2.36729396171641
2.36729413738047
2.36733500650464
2.36733504882627
2.36733510238151
2.3673351728816
2.36733527291963
2.36733542775895
2.36733564422957
2.36733593923045
2.36733625580257
2.36733665944655
2.367337110358
2.36733756484105
2.36733800493311
2.36733841546506
2.36733877046291
2.36733904995708
2.36733924217931
2.36733933975738
2.36733934358863
2.3673392579736
2.3673390955557
2.36733887881566
2.36733863991512
2.36733840978512
2.36733821664658
2.36733808535395
2.36733802767721
2.36733804419892
2.36733812354743
2.36733823797409
2.36733834606284
2.36733842681394
2.36733847035201
2.36733847127554
2.36733842302245
2.36733832242148
2.36733818762156
2.36733801784473
2.36733781579584
2.36733759307298
2.36733737404932
2.36733716323067
2.36733697975315
2.36733685601236
2.3673368147
2.36733685817208
2.36733697245988
2.36733713073406
2.36733729168029
2.36733740783957
2.36733743780059
2.36733733906294
2.36733709158423
2.36733669414351
2.36733615547374
2.36733550770845
2.36733479698048
2.36733409202893
2.36733343263346
2.36733286917983
2.3673324350615
2.36733214746463
2.36733200693523
2.36733199706222
2.36733209386243
2.36733228786427
2.36733252198664
2.36733276788373
2.36733301208459
2.36733324584106
2.36733346297352
2.36733365895711
2.36733382782096
2.36733395978827
2.3673340517933
2.36733409990175
2.3673340918163
2.36733400653465
2.36733383082683
2.36733356594302
2.36733322636141
2.36733283485221
2.36733241946988
2.36733201215358
2.36733164718863
2.36733135703589
2.36733116599975
2.36733108443524
2.36733110957168
2.36733122282016
2.36733139547636
2.36733159461454
2.3673317876801
2.36733194529791
2.36733204064499
2.36733204756713
2.36733194506303
2.36733172258227
2.36733137543685
2.36733089146889
2.36733026351214
2.36732949699739
2.36732860847962
2.36732762379468
2.36732657840318
2.36732551820163
2.36732449824626
2.36732357997005
2.36732282713801
2.36732229987059
2.3673220469522
2.3673220990361
2.36732245554331
2.36732308781958
2.36732394260429
2.36732494892894
2.36732602257025
2.36732707915112
2.36732804395959
2.36732886177164
2.36732950397195
2.36732996951207
2.36733027937108
2.367330468968
2.36733058921571
2.36733069444423
2.367330789122
2.36733088581967
2.36733098939826
2.36733106105563
2.36733105433651
2.36733098186892
2.36733086507481
2.36733070814935
2.36733052169764
2.36733033987693
2.36733019510862
2.36733011654882
2.36733011698804
2.36733020790699
2.36733040033713
2.36733065887306
2.36733100586615
2.36733140985491
2.36733183419928
2.36733227054029
2.36733273191486
2.36733323068508
2.36733376894573
2.36733433766673
2.36733490474354
2.36733542844597
2.3673358641401
2.36733617208218
2.3673363275254
2.36733632758443
2.36733619183533
2.36733595805022
2.36733567590957
2.36733540543055
2.36733520346584
2.36733510118932
2.36733511216272
2.3673352390748
2.36733546965912
2.36733577899103
2.36733613484816
2.36733650517465
2.36733686541771
2.36733720559071
2.36733752538546
2.36733782609104
2.36733810301452
2.36733836708764
2.36733862539561
2.36733886525968
2.36733905820568
2.36733920850583
2.3673393014193
2.36733934618641
2.36733932467286
2.36733926631161
2.36733919098297
2.36733913762629
2.3673391313301
2.36733917036442
2.36733925912527
2.36733939125257
2.36733954366179
2.36733967456882
2.36733973564146
2.36733968794811
2.36733951152154
2.36733920768498
2.36733879542415
2.36733832298892
2.36733785556519
2.36733745886714
2.36733718424956
2.36733705875063
2.36733707995623
2.36733721151772
2.36733738785342
2.36733753543007
2.36733758641923
2.36733749554642
2.36733725276786
2.36733688182857
2.36733642794188
2.36733596195876
2.36733554838037
2.36733524286132
2.36733507912169
2.36733508445948
2.36733520990198
2.36733541375703
2.3673356491068
2.36733587114019
2.36733604599945
2.36733615476998
2.36733619381212
2.36733617305667
2.36733611206231
2.36733603283894
2.36733595341127
2.36733589254282
2.36733584995787
2.36733580485381
2.36733574164921
2.36733564362459
2.36733550846259
2.3673353247056
2.36733510260759
2.36733494559435
2.36733481220553
2.36733472998484
2.36733472763782
2.3673348031485
2.36733492820452
2.36733510014223
2.36733528791071
2.36733544989824
2.36733555004167
2.3673355663474
2.36733549415629
2.36733532719184
2.36733507729269
2.36733477449407
2.36733445613113
2.36733415605293
2.36733389474821
2.36733367759525
2.36733350292023
2.3673333545727
2.36733321101326
2.36733305207065
2.36733286399611
2.3673326416554
2.36733239049482
2.36733212624004
2.36733186913053
2.36733163793409
2.36733145289456
2.36733134770188
2.36733132851295
2.36733138154433
2.36733148627977
2.36733162137832
2.36733177279395
2.36733193440615
2.36733209222022
2.36733224281932
2.36733238419207
2.36733251982055
2.36733266458003
2.36733280645799
2.36733288305073
2.36733295141879
2.36733301999166
2.36733304526834
2.36733300038514
2.36733287121053
2.3673326527395
2.36733235693068
2.36733200560294
2.36733162419222
2.36733124924982
2.36733091080514
2.36733063062329
2.36733042635161
2.36733030469183
2.36733025756457
2.36733026883672
2.36733031262141
2.36733037975093
2.36733046997272
2.36733059060567
2.36733075904982
2.36733099047739
2.36733129209692
2.3673316561356
2.36733204842402
2.36733240829312
2.36733267719976
2.36733281556639
2.36733279994765
2.36733264976247
2.36733241119168
2.36733215137764
2.36733194515752
2.36733186175135
2.36733194404842
2.3673321941277
2.36733258002979
2.367333051961
2.36733354066619
2.36733399585347
2.36733429935533
2.36733450074967
2.36733458802106
2.36733459001778
2.36733454288557
2.36733446916548
2.3673343747844
2.36733425631242
2.36733411497023
2.36733393299389
2.36733369751817
2.36733340968529
2.36733308834006
2.36733275868066
2.36733245478599
2.36733221168914
2.36733206045115
2.3673320255805
2.36733212217043
2.3673323424288
2.36733267101233
2.36733308863029
2.36733356796534
2.36733407691412
2.367334595332
2.36733509903572
2.36733556301438
2.36733596460472
2.36733628565749
2.36733651472515
2.36733664847275
2.36733669142162
2.36733665558523
2.36733656432487
2.36733642487657
2.36733625796413
2.36733607777294
2.36733590172239
2.36733574114456
2.36733560207209
2.3673354809508
2.36733537122452
2.36733527291855
2.36733519187279
2.36733512673194
2.3673350801955
2.36733508492593
2.36733512178111
2.3673351952626
2.36733529173968
2.36733540329175
2.36733551148342
2.36733557399976
2.36733557647615
2.36733549945664
2.36733535932091
2.36733519526379
2.36733505715397
2.36733500005049
2.36733507119637
2.36733529022293
2.36733567262598
2.36733618705225
2.36733676927938
2.36733734358728
2.36733783798819
2.36733819167604
2.3673383720739
2.36733837992005
2.36733823249846
2.36733796982471
2.36733761855524
2.3673372181968
2.36733680247684
2.36733639762726
2.36733602355898
2.36733569823986
2.36733542942622
2.36733521719622
2.36733507222733
2.36733499631135
2.36733496926261
2.36733497707987
2.36736638006739
2.36736628990651
2.36736622229764
2.36736617826503
2.36736616023455
2.36736619388563
2.36736629607111
2.36736642072592
2.36736664604656
2.36736691217487
2.3673672275502
2.36736758970786
2.36736796547017
2.3673683590845
2.36736874958878
2.36736911825458
2.36736944554375
2.36736971078938
2.36736989038817
2.36736997478153
2.36736995509884
2.367369841376
2.36736966385812
2.36736944997388
2.36736923936125
2.36736907254005
2.36736898124657
2.36736898037979
2.36736906657609
2.36736921285694
2.36736937660822
2.36736951817855
2.36736960973022
2.36736963229317
2.36736957030193
2.36736941734512
2.36736917434712
2.36736887657438
2.36736851712744
2.36736813752165
2.36736778625647
2.36736745502225
2.36736715575835
2.36736692805935
2.36736680044071
2.36736677952223
2.36736685581445
2.36736700256798
2.36736716970617
2.36736732205432
2.36736741196999
2.36736739862844
2.36736725372674
2.36736697513099
2.36736658003074
2.36736610246113
2.36736557952067
2.36736510767875
2.36736468179668
2.36736435123433
2.36736413777207
2.36736404484764
2.36736406158525
2.36736416529818
2.36736432491898
2.36736451037867
2.36736468871428
2.36736484283864
2.36736496985726
2.36736507392104
2.36736516106294
2.36736523480059
2.36736528886725
2.36736532763669
2.36736534719453
2.36736534576131
2.36736529851858
2.3673651826835
2.36736498667358
2.36736471540002
2.3673643866554
2.36736402429817
2.36736365455466
2.36736330466659
2.36736300141661
2.3673627677938
2.36736261833054
2.36736255196913
2.36736255432798
2.36736260287855
2.36736266695446
2.36736271657337
2.36736272525263
2.36736267417876
2.36736255454214
2.36736236505586
2.36736211469606
2.36736182368933
2.36736151859399
2.36736122073957
2.36736094630758
2.36736070635279
2.36736050490581
2.36736033904057
2.36736019814598
2.36736006882064
2.36735993957833
2.36735980479446
2.36735966789919
2.36735954130851
2.36735944313481
2.36735939090638
2.36735939202139
2.36735944329045
2.36735953257403
2.36735964093366
2.36735974472646
2.36735982288465
2.36735986287977
2.36735986604492
2.36735984938049
2.36735984252715
2.36735987928764
2.36735998883693
2.36736020012956
2.36736051625696
2.36736090552029
2.36736132785077
2.36736174136063
2.36736208327155
2.36736229524308
2.36736237152499
2.36736232833952
2.36736218369872
2.3673619805846
2.36736175375623
2.36736157187913
2.36736146620942
2.36736145493247
2.36736153873502
2.3673617234934
2.36736201590486
2.36736238877791
2.36736279976929
2.36736320724899
2.36736359936289
2.36736399216184
2.36736440649146
2.36736485382644
2.36736532994292
2.36736581166337
2.36736626403218
2.36736664595325
2.36736692012264
2.36736706298033
2.3673670696325
2.36736695515858
2.36736675149866
2.36736650078237
2.36736624935016
2.36736604611836
2.36736592684981
2.36736590579645
2.3673659811147
2.36736614270941
2.367366373372
2.36736665109534
2.36736695496143
2.36736727044211
2.36736759351897
2.36736792527063
2.36736826176212
2.36736859576366
2.36736893661999
2.36736928428913
2.36736961273971
2.36736990552126
2.36737013446063
2.36737031119245
2.36737043020163
2.36737047580193
2.36737045502218
2.36737038624647
2.36737030294461
2.36737019364366
2.36737007098892
2.36736995535395
2.36736986795899
2.36736982122627
2.36736980755539
2.36736980502537
2.36736978776582
2.3673697300738
2.36736961527302
2.36736941251497
2.36736911852029
2.3673687584224
2.36736837763387
2.36736803844523
2.36736779412302
2.36736766346072
2.3673676457661
2.36736771711852
2.36736783444442
2.36736793679269
2.36736796218619
2.36736786987812
2.3673676503417
2.36736733144135
2.36736695979097
2.36736659674062
2.36736631017052
2.36736614345525
2.367366119435
2.3673662160189
2.36736639932794
2.36736662321026
2.36736684040675
2.36736701195292
2.36736711287458
2.367367134962
2.36736708669912
2.36736699010622
2.36736687385266
2.36736676304631
2.3673666687617
2.36736663488473
2.3673666174452
2.36736660697565
2.36736658631453
2.36736655054245
2.36736648717661
2.3673663880597
2.36736628179026
2.36736617136912
2.36736607485814
2.36736600479571
2.36736596040138
2.36736594743184
2.36736594681595
2.3673659414294
2.36736591033945
2.36736582914263
2.36736569087664
2.36736551211314
2.36736527747232
2.36736500104475
2.3673647141263
2.36736445329181
2.36736424551375
2.36736410624132
2.36736403705306
2.36736402864841
2.3673640627006
2.3673641142722
2.36736415831305
2.36736417465938
2.36736415115566
2.3673640858785
2.3673639866712
2.3673638643428
2.36736372711848
2.36736358809366
2.36736350366867
2.36736344046752
2.36736339593942
2.36736335630513
2.36736330473993
2.36736323893182
2.36736317981962
2.3673631143302
2.36736305810788
2.36736302488162
2.36736302152324
2.3673630483301
2.36736311061493
2.36736322076869
2.36736334806123
2.36736348962507
2.36736359130344
2.36736361883294
2.36736356322337
2.36736342774403
2.36736322337578
2.36736297286978
2.36736271218402
2.36736247637606
2.36736228841117
2.36736215782523
2.36736208998281
2.36736207919141
2.36736210782578
2.36736215368556
2.36736219384965
2.36736222098672
2.36736225157028
2.36736231331941
2.36736243971096
2.36736265838538
2.36736298244869
2.36736340945354
2.36736388350367
2.36736433516845
2.36736467936984
2.36736487162394
2.36736485321718
2.36736462943833
2.36736423898603
2.36736375649452
2.36736326972137
2.36736286645745
2.36736261658844
2.36736255399368
2.36736267462608
2.36736294451535
2.36736330754119
2.36736370007782
2.36736408543469
2.36736441413006
2.36736468275445
2.36736490381266
2.36736509273751
2.36736525419318
2.36736537811355
2.36736545091061
2.36736547835591
2.36736542433714
2.36736527653956
2.36736504721143
2.36736475189115
2.36736442846666
2.36736411384252
2.36736384561843
2.3673636543671
2.36736356064966
2.36736357266273
2.36736368359455
2.36736387981381
2.36736414684605
2.36736446368489
2.36736481574963
2.36736518642714
2.3673655635905
2.36736593408365
2.36736628226385
2.36736659122141
2.36736684539818
2.36736703343872
2.36736714992311
2.36736719635303
2.36736718218516
2.36736711535509
2.36736701954204
2.36736689840026
2.36736677080896
2.36736663799211
2.36736651576281
2.36736640269097
2.36736629550128
2.36736619327807
2.36736610051184
2.36736602469304
2.36736597746713
2.36736597569659
2.36736601974994
2.36736610174024
2.36736620265397
2.36736630464886
2.36736638613738
2.36736637066683
2.36736626359895
2.36736605770853
2.36736578610007
2.3673655130816
2.36736531156157
2.36736524996254
2.3673653713605
2.36736567822215
2.36736616702086
2.36736677760273
2.36736742093006
2.36736801903493
2.36736849868588
2.3673688290255
2.36736900068647
2.36736903428866
2.36736895431943
2.36736883193592
2.36736866138814
2.36736846977561
2.36736826736412
2.36736805647884
2.36736783700576
2.36736761054401
2.36736737841681
2.36736715760826
2.36736695063309
2.36736677831669
2.36736662421534
2.36736649147376
2.36738472823759
2.36738455396531
2.36738441336526
2.36738430590398
2.36738422771014
2.36738417579358
2.3673841556003
2.36738418114314
2.367384290756
2.36738441171596
2.36738458167859
2.36738481221205
2.36738509408713
2.36738542920405
2.36738581411157
2.36738623041978
2.3673866533449
2.36738704414866
2.36738736683082
2.36738758989639
2.36738768921563
2.36738766191825
2.36738752596863
2.3673873184467
2.36738709249776
2.36738690180976
2.36738679247608
2.3673867916521
2.36738690057525
2.36738709441018
2.36738732752441
2.36738754717287
2.36738770659334
2.36738777170863
2.36738771978849
2.36738754211719
2.36738724395982
2.36738686316028
2.36738641649601
2.36738594345081
2.36738548487567
2.36738505436952
2.36738467457873
2.36738437909329
2.36738419209
2.36738412235694
2.36738416186557
2.36738428348214
2.36738444730615
2.36738460956941
2.36738472055423
2.36738474361962
2.36738465465704
2.36738444937916
2.36738415026699
2.36738379674272
2.36738343483669
2.36738311139806
2.36738286034238
2.36738270572554
2.36738265436906
2.36738269782524
2.36738281557611
2.36738297858676
2.36738315372489
2.36738331073147
2.36738343192779
2.36738351197296
2.36738355665171
2.3673835781172
2.36738358805822
2.36738359079096
2.36738359002035
2.3673835875562
2.36738357497799
2.36738353779718
2.36738345226158
2.36738329971582
2.36738307512375
2.36738278869639
2.36738246113918
2.3673821171475
2.36738178246458
2.367381481827
2.36738123609057
2.36738105948936
2.36738095656432
2.36738091854441
2.36738092322801
2.36738094212846
2.36738094511621
2.36738090432923
2.36738079850834
2.36738061556455
2.36738035477694
2.36738002935925
2.3673796658844
2.36737930177543
2.36737898099427
2.36737874609569
2.36737863051478
2.36737865240458
2.36737881223277
2.36737909127679
2.36737945355686
2.36737985216919
2.36738023721929
2.36738056365104
2.36738079853773
2.36738092437819
2.36738093771499
2.36738084408393
2.36738065476732
2.36738037980299
2.36738003232547
2.36737962114894
2.36737916318135
2.3673786776502
2.36737819234689
2.36737774539858
2.36737738262243
2.36737715059952
2.36737708778704
2.36737721578508
2.36737753448501