/*--------------------------------*- C++ -*----------------------------------*\
| =========                 |                                                 |
| \\      /  F ield         | foam-extend: Open Source CFD                    |
|  \\    /   O peration     | Version:     4.0                                |
|   \\  /    A nd           | Web:         http://www.foam-extend.org         |
|    \\/     M anipulation  |                                                 |
\*---------------------------------------------------------------------------*/
FoamFile
{
    version     2.0;
    format      ascii;
    class       volScalarField;
    location    "6.57";
    object      T;
}
// * * * * * * * * * * * * * * * * * * * * * * * * * * * * * * * * * * * * * //

dimensions      [0 0 0 1 0 0 0];

internalField   nonuniform List<scalar> 
160000
(
1.40201873561394
1.40201869395829
1.40201865180017
1.40201860681942
1.40201855701308
1.40201850564799
1.40201845461384
1.40201840645963
1.40201836550317
1.40201834677169
1.40201833895399
1.40201832642571
1.40201831510455
1.40201831253717
1.40201831584779
1.40201831830274
1.40201832724616
1.40201833756166
1.40201836339293
1.40201840157026
1.40201845136681
1.4020185131586
1.4020185860844
1.40201866381196
1.40201873869702
1.40201880064928
1.40201883919122
1.40201885027483
1.40201883667763
1.40201880079904
1.40201873906584
1.4020186614802
1.40201858234738
1.40201851355963
1.40201845752613
1.40201841090868
1.40201838032532
1.40201836683848
1.40201835480946
1.40201834824878
1.40201835617812
1.40201835318271
1.40201832817517
1.40201828812397
1.40201823961416
1.40201818425388
1.40201812435579
1.40201806413754
1.40201800790726
1.40201796008402
1.40201792507809
1.40201790567629
1.40201791029138
1.40201794394019
1.4020180055603
1.40201809668154
1.40201821630345
1.40201836136283
1.40201852238811
1.40201869277676
1.40201886353195
1.40201902429718
1.40201916277958
1.40201926356997
1.40201931433033
1.40201932365932
1.40201926714369
1.40201914664698
1.4020189753104
1.40201876890039
1.40201854436851
1.4020183194969
1.40201811225482
1.40201793993144
1.40201781754475
1.40201775473959
1.40201774981647
1.4020177911311
1.40201786682028
1.40201796763236
1.40201808540773
1.4020182111835
1.40201833500675
1.40201844617675
1.40201853316069
1.40201858370474
1.40201858584924
1.40201852776911
1.402018399608
1.4020181975561
1.40201792440592
1.40201758998455
1.40201721196824
1.40201681666306
1.40201643839653
1.4020161173878
1.40201589849383
1.40201583033115
1.40201595677144
1.40201630292593
1.40201687774103
1.40201767438949
1.40201866795082
1.40201981323791
1.40202104705155
1.40202229330362
1.4020234691227
1.40202449181142
1.40202528624357
1.40202579247294
1.40202597258421
1.40202581614628
1.40202533540605
1.40202456974
1.40202358026786
1.40202244190334
1.40202123499786
1.40202003739666
1.40201891782678
1.40201793107205
1.40201711515144
1.40201648970843
1.40201605509667
1.40201579717097
1.40201570056294
1.4020157539259
1.40201590903226
1.40201612838132
1.40201638735635
1.40201666506802
1.40201694244696
1.40201720613617
1.40201744745857
1.40201766093076
1.40201784403084
1.40201799661024
1.40201811842995
1.40201820469635
1.40201824978316
1.40201825002714
1.40201821787743
1.40201817071224
1.40201811827034
1.40201805561803
1.40201797499864
1.40201788259182
1.40201779699517
1.40201773680985
1.4020177175822
1.40201775293322
1.40201783649186
1.40201795886086
1.40201810731223
1.40201826598032
1.40201841863734
1.40201855059743
1.40201864995351
1.40201870817979
1.40201872102147
1.40201869470611
1.40201864060066
1.4020185656866
1.40201847834628
1.402018388958
1.40201830677564
1.40201823873368
1.4020181887356
1.40201815809444
1.40201814709534
1.40201815875228
1.40201819298462
1.40201824616365
1.40201830699868
1.40201837726413
1.40201845830859
1.4020185342114
1.40201859094119
1.4020186247112
1.40201863302349
1.4020186257962
1.40201858388459
1.40201852584262
1.40201847019436
1.40201843571975
1.40201843581667
1.40201846542428
1.4020185267217
1.40201861633309
1.40201872023068
1.40201881255422
1.40201886771926
1.40201887004674
1.40201882145022
1.40201873016781
1.40201860799451
1.40201847669897
1.40201835968064
1.40201827738476
1.40201824357662
1.40201827250472
1.40201834268896
1.40201844359933
1.40201856906373
1.40201871350163
1.40201886663113
1.40201901777107
1.40201916135939
1.40201929639603
1.40201942230136
1.40201953675865
1.40201963338949
1.40201970097821
1.40201973096434
1.40201972763558
1.40201966615897
1.40201954804943
1.40201938263602
1.40201918280037
1.40201896471137
1.40201874648881
1.40201854623898
1.40201837989257
1.40201825888536
1.40201818618565
1.4020181567495
1.40201819129495
1.40201825828705
1.40201834655781
1.4020184438878
1.4020185370728
1.40201861954792
1.40201866791047
1.40201866916042
1.40201868330011
1.40201865432963
1.40201858821908
1.40201850258927
1.40201840456214
1.40201829891215
1.40201818987005
1.40201808047227
1.40201797113317
1.40201786064481
1.40201775228782
1.40201765447188
1.40201756075095
1.40201747263568
1.40201739757482
1.40201734208929
1.402017310911
1.4020173063527
1.40201732938254
1.40201738355638
1.40201746662451
1.40201757377263
1.40201769933171
1.40201783732761
1.40201798062796
1.40201812169925
1.40201825304552
1.40201836490673
1.40201844557505
1.40201848919503
1.40201850040354
1.40201847873704
1.4020184127008
1.40201829934249
1.40201814221937
1.40201795158103
1.40201774033763
1.40201751674753
1.40201729425138
1.40201708484047
1.40201689909122
1.40201674740428
1.402016640821
1.40201658812562
1.40201659437913
1.40201666304805
1.40201677568709
1.40201691917587
1.4020170851105
1.40201726315222
1.40201743855201
1.40201759718701
1.40201773064284
1.40201783637671
1.402017915168
1.40201797057982
1.40201801081015
1.40201804859126
1.40201809767125
1.4020181692494
1.40201826319888
1.40201837422025
1.40201849807077
1.40201862768532
1.40201875289937
1.40201886069406
1.40201893875192
1.40201897901203
1.40201897893459
1.4020189278791
1.4020188263393
1.40201868230967
1.40201850785958
1.40201831657801
1.40201812245462
1.40201793960478
1.40201777858769
1.40201764769787
1.40201755003434
1.40201747955942
1.40201742789216
1.40201739214595
1.40201736132038
1.40201732470637
1.40201727908736
1.4020172267433
1.40201717669587
1.40201714616471
1.40201715200345
1.40201720214179
1.40201729996779
1.40201744214424
1.40201762963393
1.40201784705224
1.40201807859065
1.40201830730497
1.40201851601396
1.40201868974075
1.40201881707759
1.40201889107744
1.40201891010183
1.40201887939151
1.40201880954873
1.40201870564905
1.4020185755489
1.40201842808591
1.40201826872755
1.40201810273763
1.40201793499726
1.40201777048753
1.40201761474658
1.40201747348516
1.40201735225317
1.40201725616476
1.4020171898744
1.40201715770008
1.40201716487843
1.40201721956218
1.40201731263499
1.40201743828807
1.40201758685764
1.40201774689917
1.40201790619937
1.4020180524297
1.40201817399544
1.4020182618368
1.40201831449356
1.40201833579628
1.40201832682047
1.40201828900596
1.40201825150878
1.40201820490116
1.40201816151217
1.40201812327671
1.40201810053686
1.40201809977458
1.40201811624343
1.40201813611622
1.40201813785172
1.40201811584575
1.40201806899628
1.40201799836727
1.40201791028651
1.40201781796045
1.40201773861844
1.40201768999195
1.40201768942403
1.40201774383649
1.40201785393522
1.40201801627465
1.40201821794028
1.40201843885493
1.4020186576404
1.40201885551433
1.40201902090473
1.40201914381638
1.40201922094126
1.40201925422289
1.40201924818641
1.40201920952012
1.40201914829791
1.40201907630628
1.40201900309385
1.40201893598335
1.40201887768207
1.40201882580295
1.40201877890918
1.40199902075386
1.40199900738808
1.40199899038862
1.40199896576842
1.40199893098888
1.40199889757324
1.40199886303169
1.40199883209323
1.40199882381279
1.40199881833985
1.4019988206655
1.40199883226158
1.40199884905402
1.40199886797366
1.40199888753189
1.40199890817157
1.40199892335028
1.40199894184799
1.40199895631227
1.40199897377807
1.40199899437129
1.4019990207063
1.40199905871468
1.40199910381741
1.40199915298572
1.40199920215202
1.40199924518956
1.40199927551729
1.40199928806826
1.40199928632429
1.40199927446445
1.40199925601538
1.40199923667332
1.40199922216752
1.40199921470143
1.40199921273812
1.40199920397564
1.40199919455073
1.40199916484479
1.40199912181253
1.40199907745392
1.40199901900053
1.40199894082913
1.40199885241587
1.40199876335845
1.40199868090354
1.40199861051754
1.40199855490759
1.40199851399752
1.40199848725961
1.40199847281496
1.40199847062935
1.40199847905152
1.40199849803935
1.40199853160804
1.40199858157708
1.40199864074536
1.4019987421021
1.40199884556585
1.4019989571576
1.40199907191793
1.4019991803957
1.40199927149538
1.40199933450217
1.40199935737162
1.40199932647725
1.40199924515665
1.40199911853421
1.4019989556646
1.4019987702242
1.40199857863942
1.40199839749107
1.40199824156903
1.40199812297808
1.40199804911833
1.40199802431925
1.40199803930781
1.40199808773146
1.40199816334852
1.4019982587208
1.40199836586413
1.4019984769439
1.40199858438739
1.40199868023823
1.4019987554657
1.40199880005234
1.4019988043481
1.40199875932512
1.40199865892882
1.40199850224118
1.40199829302101
1.40199803907793
1.40199775236655
1.40199744974302
1.40199715384011
1.40199689256478
1.40199669634083
1.40199659416745
1.40199661144256
1.40199676929937
1.40199707861178
1.40199753587193
1.40199812364692
1.40199881315902
1.40199956454903
1.40200032970009
1.40200105621833
1.40200169206419
1.40200219011078
1.4020025126873
1.40200263559331
1.40200255041814
1.40200226860887
1.40200181489998
1.40200122705595
1.40200054959252
1.40199982911577
1.4019991104387
1.40199843342981
1.40199783084451
1.40199732692313
1.40199693662263
1.40199666583839
1.40199651167208
1.40199646861822
1.40199651851871
1.40199664580754
1.4019968264841
1.40199703750481
1.4019972668955
1.40199750541189
1.40199773212208
1.40199793102942
1.40199809928318
1.40199823839475
1.4019983506772
1.40199843666526
1.4019984969017
1.4019985302385
1.40199853258516
1.40199850533865
1.40199845928975
1.4019983895788
1.40199830041674
1.40199820086275
1.40199810294002
1.40199802084522
1.40199796940711
1.40199796128388
1.40199800133205
1.40199809015144
1.40199822046561
1.40199838013015
1.40199855478973
1.40199872937033
1.40199888966459
1.40199902419807
1.40199912562107
1.40199918968191
1.40199921298948
1.40199920015199
1.40199916227798
1.40199910614256
1.40199903740202
1.40199896270174
1.40199888856215
1.40199882059243
1.4019987635149
1.40199872113951
1.40199869463272
1.40199868634152
1.40199869541958
1.40199872015776
1.40199876465026
1.40199882553687
1.40199888881265
1.40199894529061
1.40199898208704
1.40199899904142
1.40199898596759
1.40199894925168
1.40199889754901
1.40199884802344
1.40199882706225
1.40199883023123
1.40199887055091
1.40199895107307
1.40199906437206
1.40199919480046
1.40199932076321
1.40199941990918
1.4019994772254
1.40199948356674
1.40199944707466
1.40199936940314
1.40199926494487
1.40199915382942
1.4019990561597
1.40199899568949
1.40199897539956
1.40199899913966
1.40199905778727
1.40199914265223
1.40199924759037
1.4019993623228
1.40199947551573
1.40199957968691
1.4019996727728
1.40199975586376
1.40199982864991
1.40199988873022
1.40199993490365
1.40199995432247
1.40199993640578
1.40199987666802
1.40199977552227
1.40199963625248
1.40199946695514
1.40199927960784
1.40199908893046
1.40199891082007
1.40199875990344
1.40199864731363
1.40199858098773
1.40199856317399
1.40199856119302
1.4019986152463
1.4019986846784
1.40199876046616
1.40199883187732
1.40199889215701
1.40199893557401
1.4019989527904
1.4019989258782
1.40199887294324
1.40199880225851
1.40199872043482
1.40199863690818
1.40199856275711
1.40199849376751
1.40199843166721
1.40199837547036
1.40199831857601
1.4019982601964
1.40199820927644
1.40199815417179
1.40199809544
1.40199803942668
1.40199798995216
1.40199794986706
1.40199792270855
1.40199791173818
1.40199791811539
1.40199794131881
1.40199797870267
1.40199802606961
1.40199807876158
1.40199813280074
1.40199818542849
1.40199823475893
1.40199827792653
1.40199830926238
1.4019983226857
1.40199834047636
1.4019983272092
1.40199828795715
1.40199822479335
1.40199813508481
1.40199802123529
1.40199789949176
1.40199776169095
1.40199761846926
1.40199748053481
1.4019973546865
1.4019972437143
1.40199716088258
1.40199713395626
1.40199714103426
1.40199718987658
1.40199726670312
1.40199736327214
1.40199747687656
1.40199760141141
1.40199772466796
1.40199783659904
1.40199793441992
1.40199801778327
1.40199808880836
1.40199815052339
1.40199820554824
1.40199825711232
1.40199830964113
1.40199836532524
1.40199842303763
1.40199848055823
1.40199853925373
1.40199859910497
1.40199865915932
1.4019987148717
1.4019987611881
1.4019987986068
1.40199880923478
1.40199879169701
1.40199873767917
1.40199866411556
1.40199855856124
1.40199843213112
1.40199829626454
1.40199816803715
1.40199805972797
1.40199797851272
1.40199792780499
1.40199790597796
1.40199790475021
1.4019979104518
1.40199791108386
1.40199789733239
1.40199786670011
1.40199781628505
1.40199775553976
1.4019976965102
1.40199765322351
1.40199763960404
1.40199766554159
1.40199773449267
1.40199785678066
1.40199801083368
1.40199818681794
1.40199837244101
1.40199855510168
1.40199872259833
1.40199886543441
1.4019989769954
1.40199905330514
1.40199909195716
1.40199909288595
1.40199905941932
1.40199899602713
1.40199890867594
1.40199880071487
1.40199867829501
1.40199854495157
1.40199840583884
1.40199826756594
1.40199813664846
1.40199801896483
1.40199791950494
1.40199784243969
1.40199779136909
1.40199776903953
1.4019977783051
1.40199782111476
1.40199790363312
1.40199801263621
1.4019981419519
1.40199828164935
1.40199842214088
1.40199855520251
1.40199867416639
1.40199877211306
1.40199884421568
1.4019988913714
1.40199892044558
1.4019989314769
1.40199893515523
1.40199893495912
1.40199893291964
1.40199892902956
1.40199892363321
1.40199890965998
1.40199887887547
1.40199882589638
1.4019987485569
1.40199865271031
1.40199854931122
1.40199845230657
1.40199837608557
1.40199833119111
1.40199832969098
1.40199837235766
1.40199845314331
1.40199856646677
1.40199870289982
1.40199885112143
1.40199899845618
1.40199913016573
1.40199922993566
1.40199932065661
1.40199937582666
1.40199940197791
1.40199940142703
1.4019993768567
1.40199933298619
1.40199927666586
1.4019992153346
1.40199916023669
1.40199910937177
1.40199907758263
1.40199905221112
1.40199903428888
1.4019750916319
1.40197513013402
1.40197515924916
1.40197517549219
1.40197517884926
1.4019751670495
1.40197514996683
1.40197512844039
1.40197514075224
1.40197514489314
1.4019751540075
1.40197517831071
1.40197521032915
1.40197524125991
1.40197527074083
1.40197529753079
1.40197531884314
1.40197533302995
1.40197533795791
1.40197533521719
1.40197532819732
1.40197532121242
1.40197531767751
1.40197532332177
1.40197534279802
1.40197537556533
1.40197541934978
1.40197546837467
1.40197551581139
1.4019755603053
1.40197560826845
1.4019756577624
1.4019757049028
1.40197574684961
1.40197578405106
1.40197581495632
1.40197582558622
1.40197581270999
1.40197577361054
1.40197570580343
1.40197560573272
1.40197548921033
1.40197536873488
1.40197524995901
1.40197513976898
1.4019750475883
1.40197497925776
1.40197493483045
1.4019749114617
1.40197490371869
1.40197490149996
1.40197490145326
1.40197489770931
1.4019748870167
1.40197487478989
1.40197486528546
1.4019748632819
1.40197486392446
1.40197487749276
1.40197490082917
1.40197493005041
1.40197495826033
1.40197497646467
1.40197497645826
1.40197494968032
1.40197487813997
1.40197477847874
1.40197465703087
1.4019745200342
1.40197437831081
1.40197424543929
1.40197413431922
1.40197405524739
1.40197401511068
1.40197401028582
1.4019740321964
1.40197407437496
1.40197413565412
1.4019742136936
1.401974302753
1.40197439550243
1.40197448577915
1.40197456889433
1.40197464023821
1.40197469418041
1.40197472413465
1.40197472425304
1.40197469168009
1.40197462557024
1.40197452920815
1.40197440783158
1.40197426679435
1.40197411109312
1.40197394549469
1.40197377629293
1.40197361294108
1.40197346534932
1.40197333955804
1.40197324043934
1.40197317797944
1.40197315999911
1.40197318746793
1.40197325632999
1.4019733596219
1.40197348834483
1.40197363168779
1.40197377774852
1.40197391458306
1.40197403119259
1.40197411825222
1.40197416916801
1.4019741807001
1.40197415671537
1.40197410419454
1.40197403013517
1.40197394078663
1.40197384079585
1.40197373441588
1.40197362614774
1.40197352142746
1.40197342674681
1.40197334942564
1.40197329820145
1.40197328127119
1.40197329831373
1.40197334073432
1.40197341804744
1.40197352181129
1.40197363660366
1.4019737654754
1.401973914689
1.40197406015447
1.40197418162968
1.40197428008971
1.40197436327855
1.40197443115225
1.40197448652338
1.40197453051926
1.40197456599583
1.40197458773436
1.40197458243235
1.40197455883027
1.40197449228925
1.40197439544957
1.40197429263093
1.4019742001999
1.40197412750014
1.40197408432156
1.40197408023973
1.40197411997758
1.40197420794152
1.40197434148354
1.4019745119417
1.40197470730632
1.40197491322596
1.4019751146955
1.40197529820601
1.40197545372152
1.40197557524294
1.40197565633298
1.40197569283515
1.40197569064015
1.40197565811966
1.40197560123341
1.40197552561857
1.40197543793118
1.40197534557707
1.40197525606298
1.40197517544239
1.40197510674837
1.40197505183622
1.4019750145779
1.40197500225078
1.40197500956161
1.40197502765817
1.40197505304993
1.4019750873055
1.40197511180037
1.40197512299226
1.40197511156231
1.40197509546401
1.40197507516426
1.40197506430396
1.40197506774743
1.40197509504582
1.40197516187403
1.40197526619078
1.40197539694767
1.40197553917853
1.40197567945786
1.401975805327
1.40197590370952
1.40197596269509
1.40197597608012
1.40197594823101
1.40197588599012
1.40197580028311
1.40197570647198
1.40197562184642
1.4019755608466
1.40197553092863
1.40197553346407
1.40197556620075
1.40197562016399
1.40197568489737
1.40197575033332
1.40197580750013
1.40197585136499
1.40197588444671
1.40197590528888
1.40197591720335
1.40197591952498
1.40197590861504
1.40197586707721
1.40197580741565
1.40197572851605
1.4019756302343
1.40197551563216
1.40197539029191
1.40197526217051
1.4019751408008
1.40197503541154
1.40197495298036
1.40197489759204
1.40197487012135
1.40197486272634
1.40197487009904
1.40197489125078
1.40197491841412
1.40197494427167
1.40197495866693
1.40197496503739
1.40197496421045
1.40197491072773
1.40197485039135
1.40197478894913
1.40197472714749
1.40197467545097
1.40197464897572
1.40197463651125
1.40197463497219
1.40197464282112
1.40197465550365
1.40197466520143
1.40197466248291
1.40197464941255
1.40197462765536
1.40197459633934
1.4019745539368
1.40197450139759
1.4019744423224
1.4019743814756
1.40197431893849
1.4019742557854
1.40197419191801
1.40197412637702
1.40197405866597
1.40197399049034
1.40197392542646
1.40197386793922
1.40197382362349
1.40197379856529
1.40197379393275
1.40197379621304
1.40197380052741
1.40197380703055
1.40197381598293
1.40197382581401
1.40197383205153
1.40197382838043
1.40197381697611
1.40197379767801
1.4019737728002
1.40197374368055
1.40197370583314
1.40197367009487
1.40197367463436
1.40197368294499
1.40197368321209
1.40197369069816
1.40197370963246
1.40197373835997
1.40197377481885
1.40197381442855
1.40197385512192
1.40197389990399
1.40197394892244
1.4019740050276
1.40197407004911
1.40197413881405
1.40197420246522
1.40197425288345
1.40197428341749
1.4019742957468
1.40197428921996
1.4019742682127
1.40197424166559
1.40197421883258
1.40197420498077
1.40197420200647
1.40197420574056
1.40197421204927
1.40197422063673
1.40197422756682
1.40197422519396
1.40197421389771
1.40197419205995
1.40197416552773
1.40197414448717
1.40197413934093
1.40197415542792
1.40197419320151
1.40197425011441
1.40197431689722
1.40197437513782
1.40197441021838
1.40197440201634
1.40197438726029
1.4019743252034
1.40197423512764
1.40197412705322
1.40197401338641
1.40197391448515
1.40197384643798
1.40197382072352
1.40197383419929
1.40197388802748
1.40197397945557
1.40197410155351
1.40197424401741
1.40197439979773
1.401974561295
1.40197472122232
1.4019748718082
1.40197500362586
1.40197510614639
1.401975176753
1.40197521313872
1.40197521347628
1.40197518043783
1.40197512140921
1.40197503799783
1.40197493580772
1.40197482248704
1.4019747055073
1.40197459148218
1.40197448568637
1.40197439195202
1.40197431357681
1.40197425338426
1.40197421057999
1.40197419548295
1.40197420988018
1.40197425698258
1.40197433304496
1.40197443251734
1.40197454845967
1.40197467534823
1.40197480772076
1.40197493717024
1.40197505488463
1.40197516071813
1.40197525642586
1.40197532843184
1.40197539298532
1.40197544813082
1.40197549520604
1.40197552364097
1.40197552313259
1.40197549662539
1.4019754366048
1.40197535131789
1.4019752455248
1.40197512862681
1.40197501668985
1.40197492624047
1.40197487066946
1.4019748615121
1.40197488799852
1.40197494158581
1.40197501344777
1.40197509195462
1.40197516541103
1.40197522748402
1.40197527338937
1.40197529832806
1.40197530386493
1.40197528847792
1.40197526258727
1.40197522805834
1.40197518669844
1.40197514076473
1.40197509346754
1.40197504759621
1.40197500959444
1.40197498874224
1.40197498299331
1.40197498999415
1.4019750140131
1.40197505029953
1.4019567224146
1.40195680452464
1.40195687228586
1.40195692191282
1.40195695486502
1.4019569641843
1.40195695119014
1.40195695425454
1.40195693514157
1.40195693320255
1.40195694180467
1.40195695630457
1.40195698687236
1.40195701961219
1.40195705422794
1.40195708760146
1.40195711589338
1.40195713553274
1.40195714600641
1.40195714274663
1.40195712901571
1.40195710735497
1.4019570795795
1.40195705797603
1.40195705149878
1.40195706594495
1.40195710324964
1.40195716185303
1.40195723643137
1.40195732313779
1.40195741984374
1.40195752038427
1.40195761473615
1.40195769358023
1.40195775286832
1.40195778970453
1.40195780236764
1.40195777359458
1.40195771611209
1.40195761968508
1.40195747586884
1.40195731592322
1.40195716274498
1.40195702222429
1.40195690127067
1.4019568088141
1.40195674857303
1.40195671885975
1.40195671844724
1.40195673060127
1.40195674267447
1.40195674575093
1.40195673592751
1.40195670934483
1.40195666727385
1.40195661471413
1.40195656347824
1.40195649254294
1.40195643702307
1.40195639047501
1.40195635039205
1.40195631216953
1.40195626860821
1.4019562123065
1.40195613875047
1.40195604555123
1.40195593969584
1.40195582763324
1.40195571619176
1.40195561433927
1.40195553199491
1.40195547801673
1.40195546125547
1.40195547644281
1.40195551567012
1.40195556495591
1.40195562252245
1.40195568827639
1.40195576105518
1.40195583659584
1.40195590975963
1.40195597721521
1.40195603718076
1.40195608780555
1.40195612611247
1.40195614818118
1.40195615091149
1.40195613556231
1.40195610623452
1.40195606695587
1.40195602264035
1.40195597522199
1.40195592384145
1.40195586470497
1.40195579181267
1.40195569998296
1.40195558428748
1.40195543804027
1.40195525574734
1.40195503745966
1.40195478647151
1.40195450791327
1.4019542088158
1.40195389849255
1.40195358967864
1.40195329747019
1.40195303796937
1.40195282686552
1.40195267797072
1.40195260164812
1.40195260398606
1.40195268690281
1.40195284753749
1.40195307898773
1.40195336613461
1.40195368818313
1.40195402108114
1.40195434135604
1.4019546295328
1.40195487278893
1.40195506603957
1.40195521171951
1.40195531896665
1.40195540090942
1.40195546373581
1.40195551564294
1.40195556952884
1.4019556283292
1.40195568614899
1.40195574673565
1.40195581635089
1.40195588177845
1.40195593209233
1.40195597113988
1.40195600059882
1.4019560335204
1.40195606198486
1.40195609271953
1.40195612782661
1.40195616598791
1.40195619068941
1.40195617803823
1.40195612405271
1.40195604015938
1.40195594814001
1.40195586370613
1.40195579456133
1.40195574827125
1.4019557338447
1.40195575966023
1.40195583224367
1.40195595264308
1.40195611680414
1.40195631574089
1.40195653678213
1.401956765239
1.40195698637707
1.40195718729149
1.40195735838299
1.40195749265531
1.40195758226569
1.40195762393082
1.40195762164609
1.40195758255898
1.40195751312766
1.40195742041773
1.40195731310063
1.401957200533
1.40195709082813
1.401956989791
1.40195690186723
1.40195683420944
1.4019567930283
1.40195677010804
1.40195675719758
1.40195675679348
1.40195676354286
1.40195677992821
1.40195678872127
1.40195678888714
1.40195679219815
1.40195680291131
1.40195682269042
1.4019568463344
1.40195689519767
1.40195697440179
1.40195708097152
1.40195720640497
1.40195734097186
1.40195747898181
1.40195761483133
1.4019577382847
1.40195783567356
1.40195789055481
1.40195790467928
1.40195787949133
1.4019578188777
1.40195773238021
1.40195763010424
1.401957527103
1.40195744653902
1.40195740115742
1.40195739200694
1.40195740909248
1.40195744058533
1.401957476019
1.40195750565255
1.40195752134127
1.40195751910768
1.40195750162256
1.40195747334557
1.40195743397324
1.4019573865102
1.40195732976203
1.40195727079942
1.40195720942198
1.40195714493448
1.40195707660913
1.40195700459874
1.40195693084731
1.40195685893579
1.40195679292747
1.40195673589096
1.40195668944852
1.40195665510941
1.40195663660827
1.40195661010325
1.4019565956343
1.40195658689213
1.40195657896713
1.40195656168802
1.40195653485285
1.40195650333627
1.40195645787247
1.4019564100706
1.40195636495789
1.40195632913366
1.40195631197173
1.40195631126556
1.40195633132294
1.40195636830209
1.40195641652568
1.4019564719574
1.40195652361214
1.40195655300785
1.4019565686581
1.40195656994117
1.40195655269599
1.40195651305203
1.40195645186859
1.40195637231584
1.40195627827592
1.40195617168628
1.40195605284526
1.4019559222485
1.40195578108995
1.40195563251812
1.40195548259583
1.40195533946846
1.40195521217855
1.4019551112909
1.40195504794011
1.4019550259439
1.40195501655956
1.40195503709636
1.40195508077453
1.40195514404405
1.4019552251914
1.4019553160153
1.40195539833456
1.40195547820191
1.40195554822011
1.40195560440725
1.40195564752389
1.40195568091312
1.40195570196593
1.40195569941978
1.40195568312363
1.4019556427569
1.40195559664795
1.401955553245
1.40195551165911
1.40195547223566
1.40195544048791
1.40195542320894
1.40195542384936
1.40195544559445
1.40195549172234
1.40195556160063
1.40195564356629
1.40195572066976
1.40195577670801
1.40195579949201
1.40195578655056
1.4019557412624
1.40195566955581
1.40195558428875
1.40195550047544
1.40195543296618
1.40195539037477
1.4019553694832
1.40195537588355
1.40195540512692
1.40195545439274
1.40195550209761
1.40195555304957
1.40195560055495
1.40195564698319
1.40195569651042
1.40195575758629
1.40195583592938
1.40195593139112
1.40195603931175
1.40195614939741
1.40195624603881
1.40195631403158
1.40195634279945
1.40195631728427
1.40195624843777
1.40195613927698
1.4019559984576
1.40195583954085
1.4019556820063
1.40195554599571
1.40195544492857
1.40195537303534
1.40195534615904
1.40195536811889
1.40195543406211
1.40195554430612
1.40195569127214
1.40195586950655
1.40195607001622
1.40195628111417
1.4019564883732
1.40195667662681
1.40195683435154
1.40195695238785
1.40195702412879
1.40195705059275
1.40195703472478
1.40195698429903
1.40195690668319
1.40195680994819
1.40195670220144
1.4019565905235
1.40195648028458
1.40195637511056
1.40195627757906
1.40195619005737
1.4019561147189
1.4019560585622
1.40195602139357
1.40195601472799
1.40195603822982
1.40195609710428
1.40195618279041
1.40195629164043
1.4019564185105
1.40195655659298
1.40195669851789
1.40195683924108
1.40195697497736
1.40195709989556
1.40195721472253
1.40195731760412
1.40195740316885
1.40195745612248
1.40195745931142
1.40195743236991
1.4019573603757
1.40195725729085
1.40195713727729
1.40195701557908
1.4019569112712
1.40195684060362
1.40195681500901
1.40195684027433
1.40195689358811
1.40195695916114
1.40195702422854
1.40195707058575
1.40195709222872
1.40195707985404
1.40195703599779
1.40195696662122
1.40195688641541
1.40195678466479
1.40195669112174
1.40195660715168
1.40195653531351
1.401956477012
1.40195643321796
1.4019564053607
1.40195639762445
1.40195640695937
1.40195643858611
1.40195648405239
1.40195655212325
1.40195663481521
1.40194607895968
1.40194619202863
1.4019462877496
1.40194636013462
1.40194640838104
1.40194643543822
1.40194644330738
1.40194643180111
1.40194638800513
1.40194636481415
1.40194634856841
1.40194633874935
1.40194634394898
1.4019463620919
1.40194638892869
1.40194642246493
1.4019464575493
1.4019464915742
1.40194651790943
1.401946530207
1.40194652629381
1.40194650686444
1.40194647696203
1.40194644618604
1.40194642491029
1.4019464246946
1.40194645331847
1.40194651321349
1.40194660200781
1.40194671294511
1.40194683722381
1.40194696347256
1.40194707816786
1.40194716923032
1.40194722914221
1.40194725488457
1.40194724611899
1.40194719192573
1.40194710039541
1.40194697129132
1.40194680805239
1.40194663377171
1.40194646765523
1.40194632049847
1.40194620191414
1.40194611930655
1.40194607491585
1.40194606614798
1.40194608394801
1.40194611331363
1.40194614123517
1.4019461543077
1.40194614543181
1.40194611298985
1.40194605674965
1.40194597999056
1.40194588957186
1.40194579220607
1.40194569603986
1.40194560412668
1.40194551676885
1.40194543119351
1.40194534281166
1.40194524783111
1.40194514580782
1.40194503986695
1.4019449341616
1.40194483436634
1.4019447471178
1.40194467924819
1.40194463727519
1.40194462676637
1.40194464719942
1.40194469066783
1.40194474720509
1.40194480748165
1.401944868638
1.40194492963181
1.40194498888834
1.40194504389635
1.40194509308322
1.40194513667505
1.40194517576871
1.40194521048711
1.40194523973309
1.40194526167394
1.40194527511656
1.40194528181211
1.40194528692121
1.40194529495957
1.40194530813317
1.40194532529747
1.40194534094206
1.40194534607949
1.40194532957439
1.40194527879718
1.40194518094813
1.40194502473799
1.40194480160691
1.40194450728589
1.40194414307067
1.40194371642892
1.40194324011846
1.4019427323271
1.40194221638963
1.40194171946073
1.40194127048817
1.40194089773117
1.40194062630863
1.40194047580178
1.40194045848321
1.40194057798483
1.4019408292036
1.40194119599633
1.40194165270051
1.40194216535321
1.40194269782036
1.4019432147655
1.40194368673711
1.40194409348763
1.40194442527763
1.40194468232616
1.40194487293054
1.40194500994934
1.40194510612308
1.40194517276761